 Entering Gaussian System, Link 0=g16
 Initial command:
 /share/apps/G16revC.01/AVX2/g16/l1.exe "/scratch/27141.1.all.q/Gau-26890.inp" -scrdir="/scratch/27141.1.all.q/"
 Entering Link 1 = /share/apps/G16revC.01/AVX2/g16/l1.exe PID=     26891.
  
 Copyright (c) 1988-2019, Gaussian, Inc.  All Rights Reserved.
  
 This is part of the Gaussian(R) 16 program.  It is based on
 the Gaussian(R) 09 system (copyright 2009, Gaussian, Inc.),
 the Gaussian(R) 03 system (copyright 2003, Gaussian, Inc.),
 the Gaussian(R) 98 system (copyright 1998, Gaussian, Inc.),
 the Gaussian(R) 94 system (copyright 1995, Gaussian, Inc.),
 the Gaussian 92(TM) system (copyright 1992, Gaussian, Inc.),
 the Gaussian 90(TM) system (copyright 1990, Gaussian, Inc.),
 the Gaussian 88(TM) system (copyright 1988, Gaussian, Inc.),
 the Gaussian 86(TM) system (copyright 1986, Carnegie Mellon
 University), and the Gaussian 82(TM) system (copyright 1983,
 Carnegie Mellon University). Gaussian is a federally registered
 trademark of Gaussian, Inc.
  
 This software contains proprietary and confidential information,
 including trade secrets, belonging to Gaussian, Inc.
  
 This software is provided under written license and may be
 used, copied, transmitted, or stored only in accord with that
 written license.
  
 The following legend is applicable only to US Government
 contracts under FAR:
  
                    RESTRICTED RIGHTS LEGEND
  
 Use, reproduction and disclosure by the US Government is
 subject to restrictions as set forth in subparagraphs (a)
 and (c) of the Commercial Computer Software - Restricted
 Rights clause in FAR 52.227-19.
  
 Gaussian, Inc.
 340 Quinnipiac St., Bldg. 40, Wallingford CT 06492
  
  
 ---------------------------------------------------------------
 Warning -- This program may not be used in any manner that
 competes with the business of Gaussian, Inc. or will provide
 assistance to any competitor of Gaussian, Inc.  The licensee
 of this program is prohibited from giving any competitor of
 Gaussian, Inc. access to this program.  By using this program,
 the user acknowledges that Gaussian, Inc. is engaged in the
 business of creating and licensing software in the field of
 computational chemistry and represents and warrants to the
 licensee that it is not a competitor of Gaussian, Inc. and that
 it will not use this program in any manner prohibited above.
 ---------------------------------------------------------------
  

 Cite this work as:
 Gaussian 16, Revision C.01,
 M. J. Frisch, G. W. Trucks, H. B. Schlegel, G. E. Scuseria, 
 M. A. Robb, J. R. Cheeseman, G. Scalmani, V. Barone, 
 G. A. Petersson, H. Nakatsuji, X. Li, M. Caricato, A. V. Marenich, 
 J. Bloino, B. G. Janesko, R. Gomperts, B. Mennucci, H. P. Hratchian, 
 J. V. Ortiz, A. F. Izmaylov, J. L. Sonnenberg, D. Williams-Young, 
 F. Ding, F. Lipparini, F. Egidi, J. Goings, B. Peng, A. Petrone, 
 T. Henderson, D. Ranasinghe, V. G. Zakrzewski, J. Gao, N. Rega, 
 G. Zheng, W. Liang, M. Hada, M. Ehara, K. Toyota, R. Fukuda, 
 J. Hasegawa, M. Ishida, T. Nakajima, Y. Honda, O. Kitao, H. Nakai, 
 T. Vreven, K. Throssell, J. A. Montgomery, Jr., J. E. Peralta, 
 F. Ogliaro, M. J. Bearpark, J. J. Heyd, E. N. Brothers, K. N. Kudin, 
 V. N. Staroverov, T. A. Keith, R. Kobayashi, J. Normand, 
 K. Raghavachari, A. P. Rendell, J. C. Burant, S. S. Iyengar, 
 J. Tomasi, M. Cossi, J. M. Millam, M. Klene, C. Adamo, R. Cammi, 
 J. W. Ochterski, R. L. Martin, K. Morokuma, O. Farkas, 
 J. B. Foresman, and D. J. Fox, Gaussian, Inc., Wallingford CT, 2019.
 
 ******************************************
 Gaussian 16:  ES64L-G16RevC.01  3-Jul-2019
                29-Jan-2024 
 ******************************************
 %nprocshared=20
 Will use up to   20 processors via shared memory.
 %mem=80GB
 %chk=Vanillin_exp_opt.chk
 -----------------------------------------------------------------
 # freq=(raman,internal) 6-311++g(2d,2p) geom=connectivity pbe1pbe
 -----------------------------------------------------------------
 1/10=4,18=20,30=1,38=1,57=2/1,3;
 2/9=110,12=2,17=6,18=5,40=1/2;
 3/5=4,6=6,7=1212,11=2,25=1,30=1,71=2,74=-13,140=1/1,2,3;
 4//1;
 5/5=2,38=5,98=1/2;
 8/6=4,10=90,11=11/1;
 10/13=10,15=4/2;
 11/6=3,8=1,9=11,15=111,16=1/1,2,10;
 10/6=1/2;
 6/7=2,8=2,9=2,10=2,28=1/1;
 7/8=21,10=1,25=1/1,2,3,16;
 1/10=4,18=20,30=1/3;
 99//99;
 -------------------
 Title Card Required
 -------------------
 Symbolic Z-matrix:
 Charge =  0 Multiplicity = 1
 C                    -1.4584   -0.3255    0.00004 
 C                    -0.45617   0.65244   0.00028 
 C                     0.86408   0.26913   0.00028 
 C                     1.20318  -1.0994   0. 
 C                     0.21045  -2.06268  -0.00009 
 C                    -1.12003  -1.67229  -0.00011 
 C                    -2.86843   0.07314  -0.00004 
 C                     1.69157   2.48856  -0.00055 
 O                    -3.26575   1.21501  -0.00003 
 O                     1.94164   1.09702   0.00071 
 O                     2.49748  -1.4641   -0.00028 
 H                    -0.75714   1.69138   0.00041 
 H                     0.49815  -3.10555  -0.0002 
 H                    -1.90445  -2.42041  -0.00019 
 H                    -3.58589  -0.77332  -0.00009 
 H                     1.1352    2.78499  -0.89308 
 H                     1.13536   2.78662   0.89151 
 H                     2.66483   2.97235  -0.00106 
 H                     3.02947  -0.65989   0.00063 
 

 GradGradGradGradGradGradGradGradGradGradGradGradGradGradGradGradGradGrad
 Berny optimization.
 Initialization pass.
                           ----------------------------
                           !    Initial Parameters    !
                           ! (Angstroms and Degrees)  !
 --------------------------                            --------------------------
 ! Name  Definition              Value          Derivative Info.                !
 --------------------------------------------------------------------------------
 ! R1    R(1,2)                  1.4003         calculate D2E/DX2 analytically  !
 ! R2    R(1,6)                  1.3886         calculate D2E/DX2 analytically  !
 ! R3    R(1,7)                  1.4653         calculate D2E/DX2 analytically  !
 ! R4    R(2,3)                  1.3748         calculate D2E/DX2 analytically  !
 ! R5    R(2,12)                 1.0817         calculate D2E/DX2 analytically  !
 ! R6    R(3,4)                  1.4099         calculate D2E/DX2 analytically  !
 ! R7    R(3,10)                 1.3589         calculate D2E/DX2 analytically  !
 ! R8    R(4,5)                  1.3833         calculate D2E/DX2 analytically  !
 ! R9    R(4,11)                 1.3447         calculate D2E/DX2 analytically  !
 ! R10   R(5,6)                  1.3866         calculate D2E/DX2 analytically  !
 ! R11   R(5,13)                 1.0818         calculate D2E/DX2 analytically  !
 ! R12   R(6,14)                 1.084          calculate D2E/DX2 analytically  !
 ! R13   R(7,9)                  1.209          calculate D2E/DX2 analytically  !
 ! R14   R(7,15)                 1.1096         calculate D2E/DX2 analytically  !
 ! R15   R(8,10)                 1.4138         calculate D2E/DX2 analytically  !
 ! R16   R(8,16)                 1.0927         calculate D2E/DX2 analytically  !
 ! R17   R(8,17)                 1.0927         calculate D2E/DX2 analytically  !
 ! R18   R(8,18)                 1.0869         calculate D2E/DX2 analytically  !
 ! R19   R(11,19)                0.9642         calculate D2E/DX2 analytically  !
 ! A1    A(2,1,6)              120.1936         calculate D2E/DX2 analytically  !
 ! A2    A(2,1,7)              119.9163         calculate D2E/DX2 analytically  !
 ! A3    A(6,1,7)              119.8901         calculate D2E/DX2 analytically  !
 ! A4    A(1,2,3)              119.5136         calculate D2E/DX2 analytically  !
 ! A5    A(1,2,12)             118.1417         calculate D2E/DX2 analytically  !
 ! A6    A(3,2,12)             122.3447         calculate D2E/DX2 analytically  !
 ! A7    A(2,3,4)              120.106          calculate D2E/DX2 analytically  !
 ! A8    A(2,3,10)             126.2757         calculate D2E/DX2 analytically  !
 ! A9    A(4,3,10)             113.6183         calculate D2E/DX2 analytically  !
 ! A10   A(3,4,5)              120.2207         calculate D2E/DX2 analytically  !
 ! A11   A(3,4,11)             119.6535         calculate D2E/DX2 analytically  !
 ! A12   A(5,4,11)             120.1258         calculate D2E/DX2 analytically  !
 ! A13   A(4,5,6)              119.5098         calculate D2E/DX2 analytically  !
 ! A14   A(4,5,13)             118.7147         calculate D2E/DX2 analytically  !
 ! A15   A(6,5,13)             121.7755         calculate D2E/DX2 analytically  !
 ! A16   A(1,6,5)              120.4563         calculate D2E/DX2 analytically  !
 ! A17   A(1,6,14)             119.5392         calculate D2E/DX2 analytically  !
 ! A18   A(5,6,14)             120.0044         calculate D2E/DX2 analytically  !
 ! A19   A(1,7,9)              124.9723         calculate D2E/DX2 analytically  !
 ! A20   A(1,7,15)             114.4986         calculate D2E/DX2 analytically  !
 ! A21   A(9,7,15)             120.5291         calculate D2E/DX2 analytically  !
 ! A22   A(10,8,16)            110.9639         calculate D2E/DX2 analytically  !
 ! A23   A(10,8,17)            110.9641         calculate D2E/DX2 analytically  !
 ! A24   A(10,8,18)            106.2432         calculate D2E/DX2 analytically  !
 ! A25   A(16,8,17)            109.4905         calculate D2E/DX2 analytically  !
 ! A26   A(16,8,18)            109.5604         calculate D2E/DX2 analytically  !
 ! A27   A(17,8,18)            109.5599         calculate D2E/DX2 analytically  !
 ! A28   A(3,10,8)             117.3472         calculate D2E/DX2 analytically  !
 ! A29   A(4,11,19)            107.7485         calculate D2E/DX2 analytically  !
 ! D1    D(6,1,2,3)              0.0044         calculate D2E/DX2 analytically  !
 ! D2    D(6,1,2,12)          -179.9992         calculate D2E/DX2 analytically  !
 ! D3    D(7,1,2,3)           -179.9958         calculate D2E/DX2 analytically  !
 ! D4    D(7,1,2,12)             0.0006         calculate D2E/DX2 analytically  !
 ! D5    D(2,1,6,5)             -0.003          calculate D2E/DX2 analytically  !
 ! D6    D(2,1,6,14)           179.9935         calculate D2E/DX2 analytically  !
 ! D7    D(7,1,6,5)            179.9972         calculate D2E/DX2 analytically  !
 ! D8    D(7,1,6,14)            -0.0063         calculate D2E/DX2 analytically  !
 ! D9    D(2,1,7,9)              0.0064         calculate D2E/DX2 analytically  !
 ! D10   D(2,1,7,15)          -179.9916         calculate D2E/DX2 analytically  !
 ! D11   D(6,1,7,9)           -179.9938         calculate D2E/DX2 analytically  !
 ! D12   D(6,1,7,15)             0.0082         calculate D2E/DX2 analytically  !
 ! D13   D(1,2,3,4)              0.0016         calculate D2E/DX2 analytically  !
 ! D14   D(1,2,3,10)          -179.9887         calculate D2E/DX2 analytically  !
 ! D15   D(12,2,3,4)          -179.9947         calculate D2E/DX2 analytically  !
 ! D16   D(12,2,3,10)            0.015          calculate D2E/DX2 analytically  !
 ! D17   D(2,3,4,5)             -0.009          calculate D2E/DX2 analytically  !
 ! D18   D(2,3,4,11)           179.9866         calculate D2E/DX2 analytically  !
 ! D19   D(10,3,4,5)           179.9824         calculate D2E/DX2 analytically  !
 ! D20   D(10,3,4,11)           -0.0219         calculate D2E/DX2 analytically  !
 ! D21   D(2,3,10,8)            -0.0803         calculate D2E/DX2 analytically  !
 ! D22   D(4,3,10,8)           179.9289         calculate D2E/DX2 analytically  !
 ! D23   D(3,4,5,6)              0.0104         calculate D2E/DX2 analytically  !
 ! D24   D(3,4,5,13)          -179.9935         calculate D2E/DX2 analytically  !
 ! D25   D(11,4,5,6)          -179.9853         calculate D2E/DX2 analytically  !
 ! D26   D(11,4,5,13)            0.0109         calculate D2E/DX2 analytically  !
 ! D27   D(3,4,11,19)            0.0541         calculate D2E/DX2 analytically  !
 ! D28   D(5,4,11,19)         -179.9503         calculate D2E/DX2 analytically  !
 ! D29   D(4,5,6,1)             -0.0044         calculate D2E/DX2 analytically  !
 ! D30   D(4,5,6,14)           179.9992         calculate D2E/DX2 analytically  !
 ! D31   D(13,5,6,1)           179.9995         calculate D2E/DX2 analytically  !
 ! D32   D(13,5,6,14)            0.0031         calculate D2E/DX2 analytically  !
 ! D33   D(16,8,10,3)          -60.9228         calculate D2E/DX2 analytically  !
 ! D34   D(17,8,10,3)           61.0441         calculate D2E/DX2 analytically  !
 ! D35   D(18,8,10,3)         -179.9396         calculate D2E/DX2 analytically  !
 --------------------------------------------------------------------------------
 Trust Radius=3.00D-01 FncErr=1.00D-07 GrdErr=1.00D-07 EigMax=2.50D+02 EigMin=1.00D-04
 Number of steps in this run=      2 maximum allowed number of steps=      2.
 GradGradGradGradGradGradGradGradGradGradGradGradGradGradGradGradGradGrad

                          Input orientation:                          
 ---------------------------------------------------------------------
 Center     Atomic      Atomic             Coordinates (Angstroms)
 Number     Number       Type             X           Y           Z
 ---------------------------------------------------------------------
      1          6           0       -1.458404   -0.325502    0.000044
      2          6           0       -0.456174    0.652436    0.000284
      3          6           0        0.864082    0.269134    0.000277
      4          6           0        1.203183   -1.099395   -0.000004
      5          6           0        0.210448   -2.062680   -0.000086
      6          6           0       -1.120025   -1.672292   -0.000108
      7          6           0       -2.868425    0.073135   -0.000043
      8          6           0        1.691570    2.488564   -0.000545
      9          8           0       -3.265749    1.215007   -0.000033
     10          8           0        1.941641    1.097021    0.000708
     11          8           0        2.497475   -1.464100   -0.000281
     12          1           0       -0.757139    1.691382    0.000410
     13          1           0        0.498146   -3.105547   -0.000195
     14          1           0       -1.904449   -2.420407   -0.000186
     15          1           0       -3.585892   -0.773318   -0.000088
     16          1           0        1.135196    2.784994   -0.893083
     17          1           0        1.135362    2.786621    0.891511
     18          1           0        2.664834    2.972351   -0.001063
     19          1           0        3.029471   -0.659892    0.000628
 ---------------------------------------------------------------------
                    Distance matrix (angstroms):
                    1          2          3          4          5
     1  C    0.000000
     2  C    1.400296   0.000000
     3  C    2.397401   1.374771   0.000000
     4  C    2.771815   2.412960   1.409915   0.000000
     5  C    2.408911   2.795754   2.421692   1.383272   0.000000
     6  C    1.388648   2.417656   2.775935   2.392803   1.386565
     7  C    1.465289   2.480835   3.737650   4.237077   3.747154
     8  C    4.223897   2.825628   2.368672   3.621046   4.786183
     9  O    2.374798   2.865344   4.236765   5.032674   4.777780
    10  O    3.685631   2.438683   1.358871   2.317232   3.602879
    11  O    4.116477   3.633699   2.381611   1.344694   2.364062
    12  H    2.135321   1.081660   2.156652   3.410469   3.876752
    13  H    3.399520   3.877262   3.394463   2.126434   1.081823
    14  H    2.141864   3.397038   3.859844   3.376751   2.144938
    15  H    2.174108   3.439173   4.570446   4.800163   4.009321
    16  H    4.147243   2.806843   2.683495   3.986313   5.015231
    17  H    4.148210   2.807493   2.684331   3.987545   5.016586
    18  H    5.279861   3.888791   3.248090   4.326146   5.601388
    19  H    4.500315   3.724503   2.356268   1.878428   3.148763
                    6          7          8          9         10
     6  C    0.000000
     7  C    2.470510   0.000000
     8  C    5.021732   5.160218   0.000000
     9  O    3.597308   1.209024   5.118297   0.000000
    10  O    4.128304   4.917833   1.413835   5.208727   0.000000
    11  O    3.623486   5.581754   4.033985   6.355499   2.620743
    12  H    3.383192   2.660123   2.575204   2.553440   2.763454
    13  H    2.161642   4.630099   5.719995   5.730104   4.443563
    14  H    1.083973   2.673388   6.085175   3.881929   5.211977
    15  H    2.624625   1.109613   6.204150   2.013933   5.835391
    16  H    5.074527   4.917386   1.092725   4.757175   2.073275
    17  H    5.075792   4.918149   1.092689   4.757583   2.073250
    18  H    5.991483   6.246792   1.086873   6.185473   2.009944
    19  H    4.271214   5.943274   3.420929   6.568489   2.066426
                   11         12         13         14         15
    11  O    0.000000
    12  H    4.533164   0.000000
    13  H    2.586825   4.958454   0.000000
    14  H    4.504604   4.268856   2.498375   0.000000
    15  H    6.122461   3.751878   4.703048   2.353753   0.000000
    16  H    4.550571   2.361196   5.991791   6.093678   5.978938
    17  H    4.551843   2.361180   5.993232   6.094975   5.979829
    18  H    4.439607   3.653872   6.452548   7.068252   7.287085
    19  H    0.964246   4.457231   3.519778   5.238605   6.616335
                   16         17         18         19
    16  H    0.000000
    17  H    1.784595   0.000000
    18  H    1.780616   1.780581   0.000000
    19  H    4.031654   4.032341   3.650500   0.000000
 Stoichiometry    C8H8O3
 Framework group  C1[X(C8H8O3)]
 Deg. of freedom    51
 Full point group                 C1      NOp   1
 Largest Abelian subgroup         C1      NOp   1
 Largest concise Abelian subgroup C1      NOp   1
                         Standard orientation:                         
 ---------------------------------------------------------------------
 Center     Atomic      Atomic             Coordinates (Angstroms)
 Number     Number       Type             X           Y           Z
 ---------------------------------------------------------------------
      1          6           0        1.458404   -0.325502   -0.000044
      2          6           0        0.456174    0.652436   -0.000284
      3          6           0       -0.864082    0.269134   -0.000277
      4          6           0       -1.203183   -1.099395    0.000004
      5          6           0       -0.210448   -2.062680    0.000086
      6          6           0        1.120025   -1.672292    0.000108
      7          6           0        2.868425    0.073135    0.000043
      8          6           0       -1.691570    2.488564    0.000545
      9          8           0        3.265749    1.215007    0.000033
     10          8           0       -1.941641    1.097021   -0.000708
     11          8           0       -2.497475   -1.464100    0.000281
     12          1           0        0.757139    1.691382   -0.000410
     13          1           0       -0.498146   -3.105547    0.000195
     14          1           0        1.904449   -2.420407    0.000186
     15          1           0        3.585892   -0.773318    0.000088
     16          1           0       -1.135196    2.784994    0.893083
     17          1           0       -1.135362    2.786621   -0.891511
     18          1           0       -2.664834    2.972351    0.001063
     19          1           0       -3.029471   -0.659892   -0.000628
 ---------------------------------------------------------------------
 Rotational constants (GHZ):           1.6707239           0.8824239           0.5795643
 Standard basis: 6-311++G(2d,2p) (5D, 7F)
 There are   399 symmetry adapted cartesian basis functions of A   symmetry.
 There are   377 symmetry adapted basis functions of A   symmetry.
   377 basis functions,   558 primitive gaussians,   399 cartesian basis functions
    40 alpha electrons       40 beta electrons
       nuclear repulsion energy       587.0875341783 Hartrees.
 NAtoms=   19 NActive=   19 NUniq=   19 SFac= 1.00D+00 NAtFMM=   60 NAOKFM=F Big=F
 Integral buffers will be    131072 words long.
 Raffenetti 2 integral format.
 Two-electron integral symmetry is turned on.
 One-electron integrals computed using PRISM.
 NBasis=   377 RedAO= T EigKep=  1.30D-06  NBF=   377
 NBsUse=   376 1.00D-06 EigRej=  7.23D-07 NBFU=   376
 ExpMin= 3.60D-02 ExpMax= 8.59D+03 ExpMxC= 1.30D+03 IAcc=3 IRadAn=         5 AccDes= 0.00D+00
 Harris functional with IExCor= 1009 and IRadAn=       5 diagonalized for initial guess.
 HarFok:  IExCor= 1009 AccDes= 0.00D+00 IRadAn=         5 IDoV= 1 UseB2=F ITyADJ=14
 ICtDFT=  3500011 ScaDFX=  1.000000  1.000000  1.000000  1.000000
 FoFCou: FMM=F IPFlag=           0 FMFlag=      100000 FMFlg1=           0
         NFxFlg=           0 DoJE=T BraDBF=F KetDBF=T FulRan=T
         wScrn=  0.000000 ICntrl=       500 IOpCl=  0 I1Cent=   200000004 NGrid=           0
         NMat0=    1 NMatS0=      1 NMatT0=    0 NMatD0=    1 NMtDS0=    0 NMtDT0=    0
 Petite list used in FoFCou.
 Requested convergence on RMS density matrix=1.00D-08 within 128 cycles.
 Requested convergence on MAX density matrix=1.00D-06.
 Requested convergence on             energy=1.00D-06.
 No special actions if energy rises.
 SCF Done:  E(RPBE1PBE) =  -534.883787893     A.U. after   14 cycles
            NFock= 14  Conv=0.73D-08     -V/T= 2.0035
 DoSCS=F DFT=T ScalE2(SS,OS)=  1.000000  1.000000
 Range of M.O.s used for correlation:     1   376
 NBasis=   377 NAE=    40 NBE=    40 NFC=     0 NFV=     0
 NROrb=    376 NOA=    40 NOB=    40 NVA=   336 NVB=   336

 **** Warning!!: The largest alpha MO coefficient is  0.19486052D+03

          Differentiating once with respect to electric field.
                with respect to dipole field.
          Electric field/nuclear overlap derivatives assumed to be zero.
          There are     3 degrees of freedom in the 1st order CPHF.  IDoFFX=0 NUNeed=     3.
      3 vectors produced by pass  0 Test12= 4.48D-13 3.33D-08 XBig12= 1.89D+02 9.83D+00.
 AX will form     3 AO Fock derivatives at one time.
      3 vectors produced by pass  1 Test12= 4.48D-13 3.33D-08 XBig12= 6.24D+01 1.41D+00.
      3 vectors produced by pass  2 Test12= 4.48D-13 3.33D-08 XBig12= 8.60D+00 7.11D-01.
      3 vectors produced by pass  3 Test12= 4.48D-13 3.33D-08 XBig12= 4.58D+00 8.31D-01.
      3 vectors produced by pass  4 Test12= 4.48D-13 3.33D-08 XBig12= 5.72D-01 1.33D-01.
      3 vectors produced by pass  5 Test12= 4.48D-13 3.33D-08 XBig12= 1.44D-01 9.75D-02.
      3 vectors produced by pass  6 Test12= 4.48D-13 3.33D-08 XBig12= 2.15D-02 3.04D-02.
      3 vectors produced by pass  7 Test12= 4.48D-13 3.33D-08 XBig12= 3.95D-03 1.68D-02.
      3 vectors produced by pass  8 Test12= 4.48D-13 3.33D-08 XBig12= 1.00D-03 8.87D-03.
      3 vectors produced by pass  9 Test12= 4.48D-13 3.33D-08 XBig12= 1.12D-04 2.89D-03.
      3 vectors produced by pass 10 Test12= 4.48D-13 3.33D-08 XBig12= 2.21D-05 7.41D-04.
      3 vectors produced by pass 11 Test12= 4.48D-13 3.33D-08 XBig12= 3.29D-06 4.39D-04.
      3 vectors produced by pass 12 Test12= 4.48D-13 3.33D-08 XBig12= 1.36D-07 4.16D-05.
      2 vectors produced by pass 13 Test12= 4.48D-13 3.33D-08 XBig12= 3.55D-09 8.67D-06.
      2 vectors produced by pass 14 Test12= 4.48D-13 3.33D-08 XBig12= 1.14D-10 1.51D-06.
      2 vectors produced by pass 15 Test12= 4.48D-13 3.33D-08 XBig12= 3.99D-12 2.73D-07.
      1 vectors produced by pass 16 Test12= 4.48D-13 3.33D-08 XBig12= 1.00D-13 4.68D-08.
 InvSVY:  IOpt=1 It=  1 EMax= 2.66D-15
 Solved reduced A of dimension    46 with     3 vectors.
 End of Minotr F.D. properties file   721 does not exist.
 End of Minotr F.D. properties file   722 does not exist.
 End of Minotr F.D. properties file   788 does not exist.
 Symmetrizing basis deriv contribution to polar:
 IMax=3 JMax=2 DiffMx= 0.00D+00
 G2DrvN: will do    20 centers at a time, making    1 passes.
 PxScal for G2LodP:  IOpCl= 0 ISclPx=1 IMOff=     1 NMtTot=     4 NTT=   71253 ScalPx= 5.83D+01
 Calling FoFCou, ICntrl=  3107 FMM=F I1Cent=   0 AccDes= 0.00D+00.
 End of G2Drv F.D. properties file   721 does not exist.
 End of G2Drv F.D. properties file   722 does not exist.
 End of G2Drv F.D. properties file   788 does not exist.
          IDoAtm=1111111111111111111
          Differentiating once with respect to electric field.
                with respect to dipole field.
          Differentiating once with respect to nuclear coordinates.
 Keep R1 ints in memory in canonical form, NReq=2570541642.
          There are    60 degrees of freedom in the 1st order CPHF.  IDoFFX=5 NUNeed=    60.
 Will reuse    3 saved solutions.
     54 vectors produced by pass  0 Test12= 2.24D-14 1.67D-09 XBig12= 2.34D-01 1.54D-01.
 AX will form    54 AO Fock derivatives at one time.
     54 vectors produced by pass  1 Test12= 2.24D-14 1.67D-09 XBig12= 6.22D-02 8.29D-02.
     54 vectors produced by pass  2 Test12= 2.24D-14 1.67D-09 XBig12= 6.29D-04 5.47D-03.
     54 vectors produced by pass  3 Test12= 2.24D-14 1.67D-09 XBig12= 4.35D-06 3.23D-04.
     54 vectors produced by pass  4 Test12= 2.24D-14 1.67D-09 XBig12= 1.81D-08 1.57D-05.
     54 vectors produced by pass  5 Test12= 2.24D-14 1.67D-09 XBig12= 3.82D-11 7.86D-07.
     30 vectors produced by pass  6 Test12= 2.24D-14 1.67D-09 XBig12= 6.69D-14 3.50D-08.
 InvSVY:  IOpt=1 It=  1 EMax= 3.89D-16
 Solved reduced A of dimension   354 with    60 vectors.
 Isotropic polarizability for W=    0.000000      109.80 Bohr**3.
 End of Minotr F.D. properties file   721 does not exist.
 End of Minotr F.D. properties file   722 does not exist.
 End of Minotr F.D. properties file   788 does not exist.

 **********************************************************************

            Population analysis using the SCF Density.

 **********************************************************************

 Orbital symmetries:
       Occupied  (A) (A) (A) (A) (A) (A) (A) (A) (A) (A) (A) (A)
                 (A) (A) (A) (A) (A) (A) (A) (A) (A) (A) (A) (A)
                 (A) (A) (A) (A) (A) (A) (A) (A) (A) (A) (A) (A)
                 (A) (A) (A) (A)
       Virtual   (A) (A) (A) (A) (A) (A) (A) (A) (A) (A) (A) (A)
                 (A) (A) (A) (A) (A) (A) (A) (A) (A) (A) (A) (A)
                 (A) (A) (A) (A) (A) (A) (A) (A) (A) (A) (A) (A)
                 (A) (A) (A) (A) (A) (A) (A) (A) (A) (A) (A) (A)
                 (A) (A) (A) (A) (A) (A) (A) (A) (A) (A) (A) (A)
                 (A) (A) (A) (A) (A) (A) (A) (A) (A) (A) (A) (A)
                 (A) (A) (A) (A) (A) (A) (A) (A) (A) (A) (A) (A)
                 (A) (A) (A) (A) (A) (A) (A) (A) (A) (A) (A) (A)
                 (A) (A) (A) (A) (A) (A) (A) (A) (A) (A) (A) (A)
                 (A) (A) (A) (A) (A) (A) (A) (A) (A) (A) (A) (A)
                 (A) (A) (A) (A) (A) (A) (A) (A) (A) (A) (A) (A)
                 (A) (A) (A) (A) (A) (A) (A) (A) (A) (A) (A) (A)
                 (A) (A) (A) (A) (A) (A) (A) (A) (A) (A) (A) (A)
                 (A) (A) (A) (A) (A) (A) (A) (A) (A) (A) (A) (A)
                 (A) (A) (A) (A) (A) (A) (A) (A) (A) (A) (A) (A)
                 (A) (A) (A) (A) (A) (A) (A) (A) (A) (A) (A) (A)
                 (A) (A) (A) (A) (A) (A) (A) (A) (A) (A) (A) (A)
                 (A) (A) (A) (A) (A) (A) (A) (A) (A) (A) (A) (A)
                 (A) (A) (A) (A) (A) (A) (A) (A) (A) (A) (A) (A)
                 (A) (A) (A) (A) (A) (A) (A) (A) (A) (A) (A) (A)
                 (A) (A) (A) (A) (A) (A) (A) (A) (A) (A) (A) (A)
                 (A) (A) (A) (A) (A) (A) (A) (A) (A) (A) (A) (A)
                 (A) (A) (A) (A) (A) (A) (A) (A) (A) (A) (A) (A)
                 (A) (A) (A) (A) (A) (A) (A) (A) (A) (A) (A) (A)
                 (A) (A) (A) (A) (A) (A) (A) (A) (A) (A) (A) (A)
                 (A) (A) (A) (A) (A) (A) (A) (A) (A) (A) (A) (A)
                 (A) (A) (A) (A) (A) (A) (A) (A) (A) (A) (A) (A)
                 (A) (A) (A) (A) (A) (A) (A) (A) (A) (A) (A) (A)
 The electronic state is 1-A.
 Alpha  occ. eigenvalues --  -19.26688 -19.25324 -19.19439 -10.30696 -10.30419
 Alpha  occ. eigenvalues --  -10.30289 -10.29057 -10.24395 -10.24207 -10.23836
 Alpha  occ. eigenvalues --  -10.23741  -1.14008  -1.10877  -1.07397  -0.90274
 Alpha  occ. eigenvalues --   -0.80741  -0.79656  -0.74845  -0.68091  -0.64926
 Alpha  occ. eigenvalues --   -0.60790  -0.58939  -0.56355  -0.52603  -0.51256
 Alpha  occ. eigenvalues --   -0.48902  -0.47716  -0.47097  -0.45335  -0.45202
 Alpha  occ. eigenvalues --   -0.42690  -0.42078  -0.41849  -0.38399  -0.37917
 Alpha  occ. eigenvalues --   -0.37518  -0.35198  -0.27317  -0.27088  -0.24462
 Alpha virt. eigenvalues --   -0.05913  -0.01235  -0.00636   0.00743   0.00806
 Alpha virt. eigenvalues --    0.02851   0.02946   0.02988   0.04151   0.04911
 Alpha virt. eigenvalues --    0.06063   0.06409   0.07375   0.07465   0.07902
 Alpha virt. eigenvalues --    0.09849   0.10121   0.10451   0.11067   0.11419
 Alpha virt. eigenvalues --    0.11463   0.12188   0.12674   0.13170   0.13664
 Alpha virt. eigenvalues --    0.13841   0.14259   0.14455   0.15577   0.15875
 Alpha virt. eigenvalues --    0.15968   0.16303   0.17042   0.17677   0.18095
 Alpha virt. eigenvalues --    0.18529   0.18884   0.19844   0.20233   0.21339
 Alpha virt. eigenvalues --    0.21805   0.22823   0.23631   0.24541   0.24959
 Alpha virt. eigenvalues --    0.26396   0.26476   0.26860   0.27529   0.28353
 Alpha virt. eigenvalues --    0.28539   0.29316   0.29450   0.29797   0.30287
 Alpha virt. eigenvalues --    0.30892   0.32082   0.32671   0.32896   0.33463
 Alpha virt. eigenvalues --    0.35531   0.36105   0.36559   0.37594   0.38423
 Alpha virt. eigenvalues --    0.39092   0.40144   0.42257   0.42706   0.42815
 Alpha virt. eigenvalues --    0.44094   0.45169   0.47107   0.49040   0.49460
 Alpha virt. eigenvalues --    0.50302   0.52326   0.53054   0.53337   0.54835
 Alpha virt. eigenvalues --    0.54948   0.55500   0.56543   0.57100   0.57817
 Alpha virt. eigenvalues --    0.58822   0.59228   0.60816   0.61946   0.62170
 Alpha virt. eigenvalues --    0.62738   0.64642   0.65058   0.65514   0.66462
 Alpha virt. eigenvalues --    0.66801   0.68059   0.69130   0.70115   0.71301
 Alpha virt. eigenvalues --    0.71891   0.73474   0.74472   0.75508   0.75840
 Alpha virt. eigenvalues --    0.77039   0.79482   0.79694   0.80569   0.81212
 Alpha virt. eigenvalues --    0.81497   0.82200   0.82274   0.83407   0.84672
 Alpha virt. eigenvalues --    0.85149   0.88270   0.89381   0.89744   0.92702
 Alpha virt. eigenvalues --    0.93649   0.95312   0.96188   0.98375   0.98594
 Alpha virt. eigenvalues --    1.00427   1.01641   1.02228   1.05577   1.06155
 Alpha virt. eigenvalues --    1.07020   1.07103   1.08591   1.09532   1.10520
 Alpha virt. eigenvalues --    1.12319   1.13101   1.13338   1.14371   1.14681
 Alpha virt. eigenvalues --    1.16170   1.17243   1.17439   1.17865   1.19342
 Alpha virt. eigenvalues --    1.20938   1.24254   1.24603   1.25184   1.27809
 Alpha virt. eigenvalues --    1.27912   1.28728   1.31398   1.31677   1.33387
 Alpha virt. eigenvalues --    1.34576   1.34912   1.35264   1.35678   1.38605
 Alpha virt. eigenvalues --    1.39947   1.40170   1.44101   1.44258   1.45909
 Alpha virt. eigenvalues --    1.48527   1.49726   1.51348   1.52149   1.53110
 Alpha virt. eigenvalues --    1.54408   1.58236   1.60697   1.60842   1.63383
 Alpha virt. eigenvalues --    1.66235   1.69089   1.71018   1.73946   1.74537
 Alpha virt. eigenvalues --    1.77570   1.78825   1.81146   1.83445   1.86593
 Alpha virt. eigenvalues --    1.89657   1.90792   1.90871   1.93286   1.96286
 Alpha virt. eigenvalues --    2.00318   2.01995   2.05042   2.12275   2.14168
 Alpha virt. eigenvalues --    2.15381   2.23453   2.38062   2.42470   2.44127
 Alpha virt. eigenvalues --    2.45083   2.50174   2.53022   2.59123   2.63856
 Alpha virt. eigenvalues --    2.65721   2.66131   2.73661   2.81524   2.85291
 Alpha virt. eigenvalues --    2.85966   2.89178   2.89268   2.91750   2.93291
 Alpha virt. eigenvalues --    2.95551   2.95838   3.06228   3.07379   3.08097
 Alpha virt. eigenvalues --    3.11405   3.15682   3.17820   3.19349   3.20783
 Alpha virt. eigenvalues --    3.24877   3.27713   3.28516   3.28531   3.29998
 Alpha virt. eigenvalues --    3.30238   3.33119   3.33762   3.36574   3.36838
 Alpha virt. eigenvalues --    3.37354   3.39537   3.40267   3.43454   3.43775
 Alpha virt. eigenvalues --    3.46075   3.48566   3.48682   3.51884   3.52849
 Alpha virt. eigenvalues --    3.54928   3.56210   3.58207   3.58585   3.60028
 Alpha virt. eigenvalues --    3.60639   3.63648   3.63699   3.65115   3.67304
 Alpha virt. eigenvalues --    3.70288   3.73688   3.74260   3.76378   3.76905
 Alpha virt. eigenvalues --    3.77256   3.80932   3.82774   3.85806   3.89552
 Alpha virt. eigenvalues --    3.93171   3.94601   3.94711   3.96140   3.97636
 Alpha virt. eigenvalues --    3.98443   3.99238   4.01861   4.02792   4.02819
 Alpha virt. eigenvalues --    4.06829   4.09265   4.13248   4.13480   4.13517
 Alpha virt. eigenvalues --    4.15129   4.22268   4.24253   4.26246   4.29794
 Alpha virt. eigenvalues --    4.34571   4.36984   4.40876   4.43453   4.45697
 Alpha virt. eigenvalues --    4.49467   4.57215   4.75874   4.79422   4.93987
 Alpha virt. eigenvalues --    5.02417   5.03099   5.05715   5.09285   5.09365
 Alpha virt. eigenvalues --    5.10801   5.15035   5.17978   5.32319   5.38150
 Alpha virt. eigenvalues --    5.55825   5.70142   5.97410   6.13504   6.28751
 Alpha virt. eigenvalues --    6.84013   6.91528   6.91816   6.94557   7.02345
 Alpha virt. eigenvalues --    7.05762   7.06967   7.10732   7.19549   7.28209
 Alpha virt. eigenvalues --    7.31950   7.37577   7.46473   7.54342   7.58903
 Alpha virt. eigenvalues --   23.83883  24.08343  24.10125  24.16928  24.19487
 Alpha virt. eigenvalues --   24.31119  24.33375  24.34871  50.14209  50.17311
 Alpha virt. eigenvalues --   50.21631
          Condensed to atoms (all electrons):
               1          2          3          4          5          6
     1  C   10.356858  -1.164708  -2.967540   0.532010  -1.260454   1.108643
     2  C   -1.164708   9.599994   0.870980  -2.856693   0.075278  -1.434326
     3  C   -2.967540   0.870980   9.787573  -0.735096  -0.630662  -0.781212
     4  C    0.532010  -2.856693  -0.735096   9.319360   0.109563  -0.155046
     5  C   -1.260454   0.075278  -0.630662   0.109563   7.265255   0.103035
     6  C    1.108643  -1.434326  -0.781212  -0.155046   0.103035   8.141536
     7  C   -0.000311  -0.478119  -0.238481   0.051388  -0.062862  -0.183686
     8  C   -0.427803  -0.223077   0.344174   0.067672   0.120107  -0.056170
     9  O   -0.506747   0.302160   0.135333  -0.006253   0.012739  -0.075510
    10  O   -0.026345   0.446637   0.136522  -0.727015   0.005546  -0.029432
    11  O   -0.001820  -0.045855   0.036220   0.466901  -0.433027   0.017497
    12  H    0.236599   0.328766  -0.166757  -0.003722  -0.038422   0.142022
    13  H   -0.011269   0.000759   0.005709  -0.038511   0.444763  -0.030259
    14  H   -0.079764   0.031849   0.005736  -0.020835   0.034162   0.432711
    15  H   -0.205210   0.172182   0.058800  -0.028314   0.070992  -0.002348
    16  H   -0.002158  -0.008777   0.018635  -0.013014  -0.005262  -0.000694
    17  H   -0.002277  -0.007855   0.018040  -0.013422  -0.005151  -0.000780
    18  H   -0.024298   0.000477  -0.004165   0.027843   0.013973  -0.006898
    19  H   -0.010492  -0.038392  -0.199258   0.099966   0.130043   0.005503
               7          8          9         10         11         12
     1  C   -0.000311  -0.427803  -0.506747  -0.026345  -0.001820   0.236599
     2  C   -0.478119  -0.223077   0.302160   0.446637  -0.045855   0.328766
     3  C   -0.238481   0.344174   0.135333   0.136522   0.036220  -0.166757
     4  C    0.051388   0.067672  -0.006253  -0.727015   0.466901  -0.003722
     5  C   -0.062862   0.120107   0.012739   0.005546  -0.433027  -0.038422
     6  C   -0.183686  -0.056170  -0.075510  -0.029432   0.017497   0.142022
     7  C    5.987358  -0.020517   0.421801  -0.010071   0.001304  -0.059408
     8  C   -0.020517   4.805649   0.013446   0.139564  -0.001193  -0.030383
     9  O    0.421801   0.013446   8.187942   0.000355  -0.000054  -0.012349
    10  O   -0.010071   0.139564   0.000355   8.690277  -0.023721  -0.014048
    11  O    0.001304  -0.001193  -0.000054  -0.023721   8.172497  -0.001455
    12  H   -0.059408  -0.030383  -0.012349  -0.014048  -0.001455   0.523323
    13  H    0.000553   0.001008   0.000084  -0.001437  -0.021611  -0.000183
    14  H   -0.011294   0.000499  -0.000424   0.000480  -0.000624   0.001769
    15  H    0.240616   0.003952  -0.070675   0.000127   0.000146  -0.001054
    16  H    0.003978   0.432849  -0.000221  -0.034216   0.000114  -0.004411
    17  H    0.003970   0.432963  -0.000215  -0.034229   0.000116  -0.004440
    18  H   -0.000944   0.417898   0.000732  -0.046768  -0.000851  -0.000871
    19  H    0.000654   0.008799   0.000024   0.043196   0.244712  -0.000040
              13         14         15         16         17         18
     1  C   -0.011269  -0.079764  -0.205210  -0.002158  -0.002277  -0.024298
     2  C    0.000759   0.031849   0.172182  -0.008777  -0.007855   0.000477
     3  C    0.005709   0.005736   0.058800   0.018635   0.018040  -0.004165
     4  C   -0.038511  -0.020835  -0.028314  -0.013014  -0.013422   0.027843
     5  C    0.444763   0.034162   0.070992  -0.005262  -0.005151   0.013973
     6  C   -0.030259   0.432711  -0.002348  -0.000694  -0.000780  -0.006898
     7  C    0.000553  -0.011294   0.240616   0.003978   0.003970  -0.000944
     8  C    0.001008   0.000499   0.003952   0.432849   0.432963   0.417898
     9  O    0.000084  -0.000424  -0.070675  -0.000221  -0.000215   0.000732
    10  O   -0.001437   0.000480   0.000127  -0.034216  -0.034229  -0.046768
    11  O   -0.021611  -0.000624   0.000146   0.000114   0.000116  -0.000851
    12  H   -0.000183   0.001769  -0.001054  -0.004411  -0.004440  -0.000871
    13  H    0.519249  -0.007729   0.002713  -0.000044  -0.000042   0.000184
    14  H   -0.007729   0.540943   0.007039  -0.000012  -0.000013  -0.000064
    15  H    0.002713   0.007039   0.654475  -0.000018  -0.000015   0.000225
    16  H   -0.000044  -0.000012  -0.000018   0.582819  -0.052697  -0.020159
    17  H   -0.000042  -0.000013  -0.000015  -0.052697   0.582935  -0.020199
    18  H    0.000184  -0.000064   0.000225  -0.020159  -0.020199   0.533921
    19  H    0.001303   0.000070   0.000036  -0.000209  -0.000221   0.000734
              19
     1  C   -0.010492
     2  C   -0.038392
     3  C   -0.199258
     4  C    0.099966
     5  C    0.130043
     6  C    0.005503
     7  C    0.000654
     8  C    0.008799
     9  O    0.000024
    10  O    0.043196
    11  O    0.244712
    12  H   -0.000040
    13  H    0.001303
    14  H    0.000070
    15  H    0.000036
    16  H   -0.000209
    17  H   -0.000221
    18  H    0.000734
    19  H    0.419511
 Mulliken charges:
               1
     1  C    0.457086
     2  C    0.428721
     3  C    0.305450
     4  C   -0.076780
     5  C    0.050385
     6  C   -1.194584
     7  C    0.354072
     8  C   -0.029439
     9  O   -0.402169
    10  O   -0.515423
    11  O   -0.409298
    12  H    0.105063
    13  H    0.134760
    14  H    0.065501
    15  H    0.096332
    16  H    0.103498
    17  H    0.103532
    18  H    0.129230
    19  H    0.294062
 Sum of Mulliken charges =  -0.00000
 Mulliken charges with hydrogens summed into heavy atoms:
               1
     1  C    0.457086
     2  C    0.533784
     3  C    0.305450
     4  C   -0.076780
     5  C    0.185145
     6  C   -1.129083
     7  C    0.450404
     8  C    0.306821
     9  O   -0.402169
    10  O   -0.515423
    11  O   -0.115236
 APT charges:
               1
     1  C   -0.424801
     2  C   -0.022570
     3  C    0.379134
     4  C    0.623220
     5  C   -0.167917
     6  C    0.076984
     7  C    1.030688
     8  C    0.471523
     9  O   -0.781116
    10  O   -0.864833
    11  O   -0.796317
    12  H    0.094538
    13  H    0.062410
    14  H    0.053454
    15  H   -0.057702
    16  H   -0.013197
    17  H   -0.013242
    18  H    0.013969
    19  H    0.335776
 Sum of APT charges =  -0.00000
 APT charges with hydrogens summed into heavy atoms:
               1
     1  C   -0.424801
     2  C    0.071968
     3  C    0.379134
     4  C    0.623220
     5  C   -0.105507
     6  C    0.130438
     7  C    0.972986
     8  C    0.459053
     9  O   -0.781116
    10  O   -0.864833
    11  O   -0.460542
 Electronic spatial extent (au):  <R**2>=           1848.0707
 Charge=             -0.0000 electrons
 Dipole moment (field-independent basis, Debye):
    X=             -2.8408    Y=              0.1227    Z=              0.0001  Tot=              2.8435
 Quadrupole moment (field-independent basis, Debye-Ang):
   XX=            -69.0655   YY=            -58.0606   ZZ=            -65.7683
   XY=            -14.1710   XZ=              0.0013   YZ=              0.0029
 Traceless Quadrupole moment (field-independent basis, Debye-Ang):
   XX=             -4.7674   YY=              6.2375   ZZ=             -1.4702
   XY=            -14.1710   XZ=              0.0013   YZ=              0.0029
 Octapole moment (field-independent basis, Debye-Ang**2):
  XXX=            -56.0647  YYY=             12.7526  ZZZ=             -0.0003  XYY=            -13.9212
  XXY=            -15.1051  XXZ=             -0.0079  XZZ=             -3.2133  YZZ=              6.1537
  YYZ=              0.0039  XYZ=             -0.0112
 Hexadecapole moment (field-independent basis, Debye-Ang**3):
 XXXX=          -1472.5206 YYYY=           -790.1955 ZZZZ=            -75.1455 XXXY=           -124.8083
 XXXZ=              0.0307 YYYX=            -49.7898 YYYZ=             -0.0050 ZZZX=              0.0036
 ZZZY=              0.0006 XXYY=           -408.1959 XXZZ=           -252.8783 YYZZ=           -163.4424
 XXYZ=              0.0246 YYXZ=             -0.0093 ZZXY=              5.7611
 N-N= 5.870875341783D+02 E-N=-2.425175576259D+03  KE= 5.330257523330D+02
  Exact polarizability:     144.756       3.355     123.397       0.000      -0.003      61.254
 Approx polarizability:     220.921      18.463     189.565       0.004      -0.010      92.344
 Calling FoFJK, ICntrl=    100127 FMM=F ISym2X=0 I1Cent= 0 IOpClX= 0 NMat=1 NMatS=1 NMatT=0.
 Full mass-weighted force constant matrix:
 Low frequencies ---   -0.0008   -0.0007   -0.0006    4.7343    6.2804    6.8743
 Low frequencies ---   81.9539  104.2424  152.4076
 Diagonal vibrational polarizability:
       32.3546148       9.7911357      52.3582963
 Diagonal vibrational hyperpolarizability:
     -260.9299268      -7.0031071       0.0516410
 Harmonic frequencies (cm**-1), IR intensities (KM/Mole), Raman scattering
 activities (A**4/AMU), depolarization ratios for plane and unpolarized
 incident light, reduced masses (AMU), force constants (mDyne/A),
 and normal coordinates:
                      1                      2                      3
                      A                      A                      A
 Frequencies --     81.9539               104.2421               152.4075
 Red. masses --      3.6986                 6.3473                 5.3758
 Frc consts  --      0.0146                 0.0406                 0.0736
 IR Inten    --      8.4587                 0.0084                 9.4558
 Raman Activ --      1.1085                 0.2546                 1.6715
 Depolar (P) --      0.7500                 0.7500                 0.5624
 Depolar (U) --      0.8571                 0.8571                 0.7199
  Atom  AN      X      Y      Z        X      Y      Z        X      Y      Z
     1   6     0.00   0.00   0.08     0.00   0.00  -0.19     0.00   0.10   0.00
     2   6     0.00   0.00  -0.03     0.00   0.00  -0.27    -0.02   0.10   0.00
     3   6     0.00   0.00  -0.08     0.00   0.00  -0.19    -0.01   0.05   0.00
     4   6     0.00   0.00  -0.04     0.00   0.00   0.04     0.02   0.04   0.00
     5   6    -0.00   0.00   0.11    -0.00   0.00   0.04     0.03   0.06  -0.00
     6   6    -0.00   0.00   0.18    -0.00   0.00  -0.09     0.01   0.10  -0.00
     7   6     0.00  -0.00   0.03     0.00  -0.00  -0.01     0.07  -0.11  -0.00
     8   6    -0.00  -0.00   0.27    -0.00  -0.00   0.16    -0.34  -0.02  -0.00
     9   8     0.00  -0.00  -0.20     0.00  -0.00   0.29     0.33  -0.20  -0.00
    10   8     0.00   0.00  -0.16     0.00   0.00  -0.24    -0.10  -0.06   0.00
    11   8    -0.00   0.00  -0.13     0.00   0.00   0.28     0.03   0.02   0.00
    12   1     0.00   0.00  -0.10     0.00   0.00  -0.34    -0.06   0.12   0.00
    13   1    -0.00   0.00   0.17    -0.00   0.00   0.19     0.05   0.05  -0.00
    14   1    -0.00   0.00   0.29    -0.00   0.00  -0.05     0.03   0.12  -0.00
    15   1    -0.00  -0.00   0.20     0.00  -0.00  -0.11    -0.11  -0.27  -0.00
    16   1    -0.06  -0.27   0.40    -0.00  -0.27   0.25    -0.39   0.08   0.00
    17   1     0.06   0.27   0.40     0.00   0.27   0.26    -0.39   0.08  -0.00
    18   1    -0.00  -0.00   0.34    -0.00  -0.00   0.30    -0.43  -0.19  -0.00
    19   1     0.00   0.00  -0.18     0.00   0.00   0.27     0.02   0.02   0.00
                      4                      5                      6
                      A                      A                      A
 Frequencies --    192.2617               203.0538               248.5843
 Red. masses --      2.0175                 2.6297                 4.3589
 Frc consts  --      0.0439                 0.0639                 0.1587
 IR Inten    --      0.4094                 6.6760                 3.0429
 Raman Activ --      1.2935                 1.5267                 0.4467
 Depolar (P) --      0.7500                 0.7500                 0.7494
 Depolar (U) --      0.8571                 0.8571                 0.8568
  Atom  AN      X      Y      Z        X      Y      Z        X      Y      Z
     1   6    -0.00   0.00  -0.08    -0.00   0.00   0.04     0.07  -0.13   0.00
     2   6    -0.00   0.00  -0.16    -0.00   0.00  -0.07     0.14  -0.05   0.00
     3   6    -0.00  -0.00  -0.03    -0.00   0.00  -0.06     0.14   0.01   0.00
     4   6    -0.00  -0.00  -0.02     0.00  -0.00  -0.06     0.06   0.04   0.00
     5   6     0.00   0.00   0.09     0.00  -0.00  -0.16    -0.02  -0.05  -0.00
     6   6     0.00   0.00   0.08    -0.00   0.00  -0.04     0.01  -0.12  -0.00
     7   6     0.00  -0.00  -0.01    -0.00   0.00   0.25     0.03  -0.02  -0.00
     8   6     0.00   0.00   0.00     0.00   0.00  -0.00    -0.25  -0.03  -0.00
     9   8     0.00  -0.00   0.05     0.00  -0.00  -0.12    -0.18   0.05  -0.00
    10   8    -0.00  -0.00   0.15    -0.00  -0.00   0.03     0.07  -0.07  -0.00
    11   8    -0.00  -0.00  -0.10     0.00   0.00   0.12     0.01   0.27   0.00
    12   1    -0.00   0.00  -0.24    -0.00   0.00  -0.06     0.21  -0.07   0.00
    13   1     0.00   0.00   0.17     0.00  -0.00  -0.22    -0.09  -0.03  -0.00
    14   1     0.00   0.00   0.19     0.00   0.00   0.01    -0.03  -0.16  -0.00
    15   1    -0.00  -0.00   0.02    -0.00  -0.00   0.80     0.16   0.09  -0.00
    16   1     0.44   0.02  -0.28     0.19  -0.01  -0.12    -0.32   0.11  -0.00
    17   1    -0.44  -0.02  -0.28    -0.19   0.01  -0.12    -0.33   0.11  -0.00
    18   1     0.00  -0.00   0.49     0.00  -0.00   0.21    -0.37  -0.26   0.01
    19   1    -0.00  -0.00  -0.11    -0.00   0.00   0.17     0.19   0.39   0.00
                      7                      8                      9
                      A                      A                      A
 Frequencies --    260.3204               340.6348               382.1409
 Red. masses --      1.5706                 5.0726                 3.9059
 Frc consts  --      0.0627                 0.3468                 0.3361
 IR Inten    --      0.1918                 2.5612                 1.5160
 Raman Activ --      0.2997                 1.6131                 0.6016
 Depolar (P) --      0.7500                 0.4497                 0.7500
 Depolar (U) --      0.8571                 0.6204                 0.8571
  Atom  AN      X      Y      Z        X      Y      Z        X      Y      Z
     1   6    -0.00   0.00   0.09     0.00   0.10   0.00    -0.00  -0.00   0.21
     2   6    -0.00   0.00   0.13    -0.05   0.04   0.00     0.00   0.00  -0.05
     3   6    -0.00  -0.00   0.02     0.01  -0.11  -0.00     0.00   0.00  -0.16
     4   6    -0.00  -0.00   0.01    -0.06  -0.06  -0.00     0.00   0.00  -0.22
     5   6     0.00   0.00  -0.03    -0.03  -0.03  -0.00     0.00  -0.00  -0.19
     6   6    -0.00   0.00  -0.02    -0.04   0.10   0.00     0.00  -0.00   0.24
     7   6    -0.00   0.00  -0.05     0.04   0.09  -0.00    -0.00  -0.00  -0.13
     8   6     0.00   0.00  -0.01     0.15  -0.27  -0.00    -0.00   0.00   0.00
     9   8     0.00  -0.00  -0.00     0.14   0.06   0.00    -0.00  -0.00   0.03
    10   8    -0.00   0.00  -0.12    -0.04  -0.20   0.00    -0.00   0.00   0.09
    11   8    -0.00  -0.00   0.03    -0.16   0.26   0.00     0.00   0.00   0.12
    12   1    -0.00   0.00   0.13    -0.15   0.06   0.00     0.00   0.00  -0.07
    13   1     0.00   0.00  -0.09     0.10  -0.06  -0.00    -0.00   0.00  -0.20
    14   1     0.00   0.00  -0.11    -0.02   0.11   0.00     0.00   0.00   0.46
    15   1    -0.00  -0.00  -0.25    -0.01   0.05  -0.00    -0.00  -0.00  -0.64
    16   1     0.44  -0.14  -0.24     0.21  -0.37  -0.00    -0.07   0.07   0.03
    17   1    -0.44   0.14  -0.24     0.21  -0.37   0.00     0.07  -0.07   0.03
    18   1     0.00   0.00   0.56     0.24  -0.09   0.00    -0.00   0.00  -0.12
    19   1    -0.00  -0.00   0.02     0.10   0.44   0.00     0.00  -0.00   0.21
                     10                     11                     12
                      A                      A                      A
 Frequencies --    416.1214               463.3276               506.7722
 Red. masses --      6.4826                 2.8273                 1.1205
 Frc consts  --      0.6614                 0.3576                 0.1695
 IR Inten    --      1.1186                12.1075                86.5367
 Raman Activ --      8.6182                 0.3550                 1.0668
 Depolar (P) --      0.0880                 0.7500                 0.7500
 Depolar (U) --      0.1617                 0.8571                 0.8571
  Atom  AN      X      Y      Z        X      Y      Z        X      Y      Z
     1   6    -0.18   0.09  -0.00    -0.00   0.00   0.08    -0.00  -0.00   0.02
     2   6    -0.04   0.21   0.00    -0.00   0.00  -0.17    -0.00  -0.00  -0.02
     3   6     0.03   0.09  -0.00     0.00   0.00   0.22    -0.00  -0.00   0.02
     4   6     0.21   0.06   0.00     0.00   0.00   0.21     0.00  -0.00   0.03
     5   6     0.11  -0.02   0.00     0.00  -0.00  -0.17     0.00  -0.00  -0.00
     6   6     0.03   0.08  -0.00    -0.00   0.00   0.08     0.00  -0.00   0.00
     7   6    -0.25  -0.16   0.00    -0.00  -0.00  -0.01    -0.00   0.00   0.00
     8   6     0.10  -0.12  -0.00     0.00  -0.00  -0.00    -0.00   0.00  -0.00
     9   8    -0.21  -0.19  -0.00    -0.00  -0.00   0.01     0.00   0.00   0.00
    10   8    -0.08  -0.07  -0.00     0.00  -0.00  -0.05    -0.00   0.00  -0.02
    11   8     0.25   0.10  -0.00     0.00   0.00  -0.03     0.00  -0.00  -0.07
    12   1     0.05   0.18   0.00    -0.00   0.00  -0.60    -0.00  -0.00  -0.10
    13   1     0.06  -0.00   0.00     0.00  -0.00  -0.59     0.00  -0.00  -0.02
    14   1     0.18   0.24  -0.00     0.00   0.00   0.05     0.00  -0.00   0.01
    15   1    -0.34  -0.24   0.00    -0.00  -0.00  -0.12    -0.00   0.00  -0.01
    16   1     0.16  -0.22  -0.00    -0.02  -0.05   0.03     0.00  -0.00  -0.00
    17   1     0.16  -0.22   0.00     0.02   0.05   0.03    -0.00   0.00  -0.00
    18   1     0.18   0.06   0.00     0.00  -0.00  -0.01     0.00   0.00  -0.01
    19   1     0.25   0.11   0.00     0.00  -0.00  -0.33     0.00   0.00   0.99
                     13                     14                     15
                      A                      A                      A
 Frequencies --    548.6693               554.1038               597.9321
 Red. masses --      6.5131                 4.0812                 4.0687
 Frc consts  --      1.1552                 0.7383                 0.8571
 IR Inten    --      2.8593                 3.3864                 9.5534
 Raman Activ --      2.3384                 2.5716                 0.0396
 Depolar (P) --      0.5362                 0.4481                 0.7499
 Depolar (U) --      0.6981                 0.6188                 0.8571
  Atom  AN      X      Y      Z        X      Y      Z        X      Y      Z
     1   6    -0.03   0.16  -0.00     0.09  -0.05   0.00    -0.00   0.00   0.35
     2   6     0.10   0.19   0.00     0.14   0.05  -0.00     0.00   0.00  -0.13
     3   6     0.21  -0.08   0.00     0.05   0.13  -0.00     0.00  -0.00  -0.23
     4   6    -0.09  -0.07  -0.00    -0.04   0.21   0.00    -0.00  -0.00   0.13
     5   6    -0.10   0.01  -0.00    -0.14   0.21   0.00    -0.00  -0.00   0.13
     6   6    -0.17   0.22   0.00    -0.11  -0.00  -0.00    -0.00   0.00  -0.20
     7   6    -0.05  -0.06  -0.00     0.12  -0.04   0.00    -0.00  -0.00   0.04
     8   6    -0.02  -0.05  -0.00     0.02  -0.19  -0.00    -0.00   0.00   0.01
     9   8    -0.10  -0.05   0.00    -0.05   0.02  -0.00    -0.00  -0.00  -0.02
    10   8     0.38  -0.06   0.00    -0.10  -0.10   0.00     0.00   0.00   0.08
    11   8    -0.12  -0.14   0.00     0.06  -0.11  -0.00    -0.00  -0.00  -0.04
    12   1    -0.07   0.24   0.00     0.27   0.01  -0.00    -0.00   0.00  -0.26
    13   1     0.08  -0.04   0.00    -0.32   0.26  -0.00     0.00  -0.00  -0.02
    14   1    -0.12   0.27   0.00    -0.27  -0.17  -0.00     0.00   0.00  -0.73
    15   1    -0.08  -0.08   0.00     0.22   0.04  -0.00    -0.00  -0.00  -0.31
    16   1    -0.14   0.19   0.01     0.09  -0.29  -0.01    -0.03   0.05   0.01
    17   1    -0.14   0.19  -0.00     0.09  -0.29   0.01     0.03  -0.05   0.01
    18   1    -0.21  -0.42  -0.00     0.12   0.00   0.00    -0.00  -0.00  -0.06
    19   1    -0.17  -0.18   0.00    -0.23  -0.30   0.00     0.00  -0.00  -0.12
                     16                     17                     18
                      A                      A                      A
 Frequencies --    638.4549               749.3948               751.5867
 Red. masses --      7.0812                 5.5429                 3.5264
 Frc consts  --      1.7007                 1.8340                 1.1736
 IR Inten    --     38.3430                50.6916                 0.0510
 Raman Activ --      6.4632                10.0277                 0.5183
 Depolar (P) --      0.5799                 0.0500                 0.7497
 Depolar (U) --      0.7341                 0.0952                 0.8569
  Atom  AN      X      Y      Z        X      Y      Z        X      Y      Z
     1   6    -0.19  -0.06  -0.00    -0.10  -0.06   0.00    -0.00  -0.00  -0.14
     2   6     0.01   0.09  -0.00    -0.08  -0.20  -0.00    -0.00  -0.00   0.08
     3   6     0.07   0.05   0.00    -0.03  -0.02   0.00    -0.00  -0.00  -0.29
     4   6     0.12   0.03  -0.00    -0.04   0.16  -0.00    -0.00   0.00   0.30
     5   6    -0.23  -0.26   0.00     0.07   0.32   0.00     0.00   0.00  -0.07
     6   6    -0.27  -0.18  -0.00     0.16  -0.09  -0.00     0.00  -0.00   0.15
     7   6    -0.15   0.23  -0.00    -0.29   0.11   0.00    -0.00   0.00  -0.02
     8   6     0.00  -0.01  -0.00     0.00  -0.12  -0.00     0.00  -0.00   0.00
     9   8     0.25   0.13   0.00     0.09  -0.02  -0.00     0.00  -0.00   0.01
    10   8     0.07  -0.01   0.00     0.20  -0.04  -0.00     0.00  -0.00   0.04
    11   8     0.22  -0.02  -0.00    -0.00   0.01   0.00    -0.00  -0.00  -0.04
    12   1     0.14   0.05   0.00    -0.03  -0.22  -0.00    -0.00  -0.00   0.56
    13   1    -0.50  -0.19   0.00    -0.12   0.38   0.00    -0.00   0.00  -0.67
    14   1    -0.24  -0.14  -0.00     0.07  -0.17   0.00     0.00  -0.00  -0.03
    15   1    -0.25   0.14  -0.00    -0.45  -0.03  -0.00    -0.00  -0.00   0.10
    16   1    -0.01   0.03   0.00    -0.08   0.02   0.00     0.01   0.03  -0.01
    17   1    -0.01   0.03  -0.00    -0.08   0.02  -0.00    -0.01  -0.03  -0.01
    18   1    -0.02  -0.07  -0.00    -0.11  -0.34  -0.00    -0.00  -0.00   0.01
    19   1     0.09  -0.11  -0.00    -0.12  -0.08   0.00    -0.00  -0.00   0.01
                     19                     20                     21
                      A                      A                      A
 Frequencies --    830.7734               835.5785               898.9488
 Red. masses --      4.9244                 1.4680                 1.4151
 Frc consts  --      2.0025                 0.6039                 0.6738
 IR Inten    --      3.0322                33.5158                17.1230
 Raman Activ --     17.2324                 0.5293                 0.2980
 Depolar (P) --      0.0557                 0.7500                 0.7500
 Depolar (U) --      0.1056                 0.8571                 0.8571
  Atom  AN      X      Y      Z        X      Y      Z        X      Y      Z
     1   6     0.06   0.05  -0.00     0.00   0.00   0.03    -0.00   0.00   0.04
     2   6    -0.20  -0.24   0.00    -0.00  -0.00   0.01     0.00  -0.00  -0.17
     3   6    -0.10  -0.15  -0.00    -0.00  -0.00  -0.04    -0.00  -0.00   0.07
     4   6     0.04   0.02  -0.00     0.00   0.00   0.12    -0.00  -0.00  -0.01
     5   6    -0.09   0.09   0.00    -0.00   0.00  -0.12     0.00   0.00   0.02
     6   6    -0.19   0.17   0.00    -0.00   0.00  -0.09    -0.00   0.00  -0.01
     7   6     0.15  -0.06  -0.00     0.00  -0.00   0.02     0.00  -0.00   0.03
     8   6     0.02   0.01   0.00     0.00   0.00   0.00     0.00  -0.00  -0.00
     9   8    -0.05  -0.00   0.00    -0.00  -0.00  -0.01    -0.00  -0.00  -0.01
    10   8     0.07  -0.00   0.00     0.00  -0.00   0.01    -0.00   0.00  -0.02
    11   8     0.26   0.07   0.00     0.00   0.00  -0.02     0.00   0.00  -0.00
    12   1    -0.63  -0.12  -0.00    -0.00  -0.00   0.04     0.00   0.00   0.96
    13   1    -0.08   0.09  -0.00    -0.00   0.00   0.69     0.00  -0.00  -0.08
    14   1    -0.31   0.05  -0.00    -0.00   0.00   0.68    -0.00   0.00   0.08
    15   1     0.21  -0.01   0.00     0.00  -0.00  -0.14     0.00  -0.00  -0.18
    16   1    -0.05   0.11   0.01     0.00   0.01  -0.00     0.01   0.01  -0.01
    17   1    -0.05   0.11  -0.01    -0.00  -0.01  -0.00    -0.01  -0.01  -0.01
    18   1    -0.07  -0.14  -0.00    -0.00  -0.00  -0.00     0.00   0.00   0.03
    19   1     0.22   0.04  -0.00     0.00   0.00  -0.06     0.00   0.00   0.02
                     22                     23                     24
                      A                      A                      A
 Frequencies --    955.0012               983.5448              1027.9640
 Red. masses --      1.3408                 3.3019                 1.7971
 Frc consts  --      0.7205                 1.8819                 1.1188
 IR Inten    --      0.8885                 1.2094                 1.4459
 Raman Activ --      0.1634                 7.0479                 1.3853
 Depolar (P) --      0.7500                 0.1017                 0.7500
 Depolar (U) --      0.8571                 0.1846                 0.8571
  Atom  AN      X      Y      Z        X      Y      Z        X      Y      Z
     1   6     0.00  -0.00  -0.00     0.06  -0.01  -0.00    -0.00   0.00   0.11
     2   6    -0.00   0.00   0.03     0.19  -0.18   0.00    -0.00  -0.00  -0.02
     3   6     0.00  -0.00  -0.01     0.10  -0.06   0.00    -0.00   0.00   0.00
     4   6    -0.00  -0.00  -0.03    -0.02  -0.05  -0.00     0.00   0.00   0.00
     5   6     0.00   0.00   0.11     0.02   0.04   0.00    -0.00  -0.00   0.01
     6   6     0.00  -0.00  -0.12    -0.13   0.18  -0.00     0.00  -0.00  -0.04
     7   6    -0.00   0.00   0.03    -0.18   0.06  -0.00     0.00  -0.00  -0.23
     8   6     0.00   0.00   0.00    -0.02   0.12   0.00     0.00  -0.00  -0.00
     9   8     0.00  -0.00  -0.01     0.03  -0.01   0.00    -0.00   0.00   0.06
    10   8     0.00  -0.00   0.00    -0.11  -0.05  -0.00     0.00   0.00  -0.00
    11   8    -0.00   0.00   0.01     0.02  -0.00   0.00    -0.00  -0.00  -0.00
    12   1    -0.00  -0.00  -0.13     0.50  -0.27  -0.00     0.00   0.00   0.14
    13   1     0.00  -0.00  -0.65     0.45  -0.07  -0.00    -0.00  -0.00  -0.05
    14   1    -0.00   0.00   0.71    -0.20   0.11   0.00     0.00   0.00   0.22
    15   1     0.00  -0.00  -0.15    -0.30  -0.04   0.00    -0.00   0.00   0.93
    16   1    -0.00  -0.00   0.00     0.06  -0.02  -0.01    -0.00   0.00  -0.00
    17   1     0.00   0.00   0.00     0.06  -0.02   0.01     0.00  -0.00  -0.00
    18   1    -0.00  -0.00  -0.00     0.07   0.30   0.00    -0.00  -0.00   0.00
    19   1    -0.00  -0.00   0.01     0.10   0.05  -0.00    -0.00  -0.00  -0.00
                     25                     26                     27
                      A                      A                      A
 Frequencies --   1077.8387              1144.0555              1176.2362
 Red. masses --      3.6455                 1.3538                 1.2771
 Frc consts  --      2.4953                 1.0440                 1.0410
 IR Inten    --     32.6130                30.4675                 0.4441
 Raman Activ --      3.5054                 0.9993                 1.0159
 Depolar (P) --      0.4557                 0.1482                 0.7500
 Depolar (U) --      0.6261                 0.2582                 0.8571
  Atom  AN      X      Y      Z        X      Y      Z        X      Y      Z
     1   6     0.01   0.01   0.00    -0.00  -0.03   0.00    -0.00  -0.00  -0.00
     2   6    -0.01   0.15  -0.00    -0.01   0.08  -0.00    -0.00   0.00   0.00
     3   6     0.09  -0.17   0.00    -0.02   0.00  -0.00    -0.00   0.00   0.00
     4   6    -0.01  -0.05  -0.00    -0.01  -0.05   0.00     0.00   0.00   0.00
     5   6    -0.03   0.15  -0.00     0.06   0.06  -0.00     0.00   0.00   0.00
     6   6     0.05  -0.12   0.00    -0.06  -0.05   0.00    -0.00   0.00   0.00
     7   6    -0.02   0.00  -0.00    -0.01  -0.00  -0.00     0.00  -0.00  -0.00
     8   6     0.05   0.26   0.00    -0.00  -0.05  -0.00     0.00   0.00   0.14
     9   8     0.00  -0.00   0.00     0.01   0.01   0.00     0.00   0.00   0.00
    10   8    -0.06  -0.22  -0.00     0.01   0.06   0.00     0.00  -0.00  -0.06
    11   8     0.02  -0.01   0.00     0.02  -0.00   0.00    -0.00  -0.00   0.00
    12   1    -0.43   0.26   0.00    -0.02   0.09  -0.00     0.00  -0.00  -0.02
    13   1    -0.35   0.24  -0.00     0.62  -0.08   0.00     0.00  -0.00  -0.00
    14   1    -0.21  -0.38   0.00    -0.52  -0.52   0.00     0.00   0.00  -0.00
    15   1    -0.02   0.00   0.00     0.01   0.02   0.00     0.00   0.00   0.00
    16   1     0.04   0.17   0.02    -0.02  -0.01   0.00     0.18   0.61  -0.18
    17   1     0.04   0.17  -0.02    -0.02  -0.01  -0.00    -0.18  -0.61  -0.18
    18   1     0.03   0.23   0.00    -0.01  -0.06  -0.00    -0.00   0.00  -0.30
    19   1     0.17   0.11  -0.00     0.13   0.08  -0.00     0.00   0.00  -0.01
                     28                     29                     30
                      A                      A                      A
 Frequencies --   1182.0667              1211.9399              1234.7086
 Red. masses --      1.9744                 1.5993                 1.5728
 Frc consts  --      1.6254                 1.3840                 1.4127
 IR Inten    --    118.1492                68.0128                58.6512
 Raman Activ --      6.0980                17.5474                 4.3395
 Depolar (P) --      0.2381                 0.1995                 0.3108
 Depolar (U) --      0.3846                 0.3327                 0.4742
  Atom  AN      X      Y      Z        X      Y      Z        X      Y      Z
     1   6    -0.16  -0.06  -0.00    -0.09  -0.04  -0.00    -0.04  -0.03   0.00
     2   6    -0.05   0.01  -0.00    -0.04   0.02  -0.00    -0.04  -0.02  -0.00
     3   6    -0.07   0.03  -0.00     0.01  -0.02  -0.00     0.02   0.05  -0.00
     4   6     0.03   0.01  -0.00     0.01  -0.09  -0.00    -0.00   0.10   0.00
     5   6     0.04   0.04  -0.00    -0.01   0.08   0.00     0.02  -0.04   0.00
     6   6    -0.04   0.02  -0.00    -0.00   0.02  -0.00    -0.02  -0.02   0.00
     7   6     0.10  -0.02   0.00     0.05  -0.01   0.00     0.03  -0.01   0.00
     8   6     0.09   0.08  -0.00    -0.12  -0.00  -0.00    -0.07   0.07  -0.00
     9   8     0.01   0.02  -0.00     0.01   0.01  -0.00     0.00   0.01   0.00
    10   8     0.00  -0.11   0.00     0.07   0.03   0.00     0.07  -0.09   0.00
    11   8    -0.01  -0.00  -0.00    -0.00  -0.03   0.00    -0.00   0.03  -0.00
    12   1     0.69  -0.19   0.00     0.27  -0.07   0.00    -0.29   0.04   0.00
    13   1     0.23  -0.00   0.00    -0.20   0.14  -0.00     0.51  -0.18   0.00
    14   1     0.07   0.15  -0.00     0.05   0.08  -0.00     0.05   0.05   0.00
    15   1     0.25   0.11   0.00     0.14   0.07   0.00     0.08   0.04   0.00
    16   1    -0.08   0.20   0.05     0.18  -0.31  -0.08     0.15  -0.19  -0.05
    17   1    -0.08   0.21  -0.05     0.18  -0.31   0.08     0.15  -0.19   0.05
    18   1    -0.13  -0.36   0.00     0.13   0.50   0.00     0.10   0.41   0.00
    19   1     0.01   0.02   0.00     0.41   0.26  -0.00    -0.43  -0.28   0.00
                     31                     32                     33
                      A                      A                      A
 Frequencies --   1289.7227              1306.5148              1340.7321
 Red. masses --      2.3571                 2.1280                 4.2193
 Frc consts  --      2.3101                 2.1401                 4.4686
 IR Inten    --     63.8669               160.0084               244.8579
 Raman Activ --     14.6336                16.9139                11.8758
 Depolar (P) --      0.3020                 0.0557                 0.1059
 Depolar (U) --      0.4639                 0.1054                 0.1916
  Atom  AN      X      Y      Z        X      Y      Z        X      Y      Z
     1   6     0.12   0.11  -0.00     0.02   0.11  -0.00    -0.19   0.13  -0.00
     2   6    -0.08  -0.05  -0.00     0.00   0.06  -0.00     0.09  -0.07   0.00
     3   6    -0.09   0.15  -0.00    -0.07  -0.14  -0.00     0.05  -0.21   0.00
     4   6     0.12   0.01  -0.00    -0.15  -0.03   0.00     0.21   0.14  -0.00
     5   6     0.01  -0.09   0.00    -0.03  -0.03  -0.00     0.23  -0.02   0.00
     6   6     0.03   0.05  -0.00     0.08  -0.03   0.00    -0.13  -0.03  -0.00
     7   6    -0.01  -0.00   0.00     0.02  -0.01   0.00     0.08  -0.01   0.00
     8   6    -0.01   0.07   0.00    -0.04  -0.00  -0.00    -0.03  -0.06  -0.00
     9   8    -0.02  -0.00  -0.00    -0.01   0.00  -0.00    -0.01   0.01  -0.00
    10   8     0.07  -0.10   0.00     0.03   0.02   0.00    -0.04   0.08   0.00
    11   8    -0.07  -0.03   0.00     0.11   0.08  -0.00    -0.12   0.00  -0.00
    12   1     0.31  -0.15   0.00     0.66  -0.12   0.00    -0.01  -0.05  -0.00
    13   1    -0.32  -0.00  -0.00    -0.10  -0.02   0.00    -0.46   0.18   0.00
    14   1    -0.48  -0.49   0.00    -0.06  -0.20   0.00    -0.35  -0.24   0.00
    15   1    -0.27  -0.22  -0.00    -0.11  -0.12  -0.00     0.05  -0.04   0.00
    16   1     0.08  -0.13  -0.01     0.06  -0.03  -0.05    -0.03   0.11  -0.04
    17   1     0.08  -0.13   0.01     0.06  -0.03   0.05    -0.03   0.11   0.04
    18   1    -0.04  -0.00   0.00     0.02   0.12   0.00     0.11   0.24   0.00
    19   1     0.11   0.10  -0.00    -0.49  -0.35   0.00    -0.39  -0.19   0.00
                     34                     35                     36
                      A                      A                      A
 Frequencies --   1411.2894              1450.6329              1475.2952
 Red. masses --      1.3488                 2.3899                 1.5291
 Frc consts  --      1.5829                 2.9631                 1.9608
 IR Inten    --     23.0648                35.6790                47.5211
 Raman Activ --      4.3532                11.8758                 3.0645
 Depolar (P) --      0.0839                 0.2412                 0.7500
 Depolar (U) --      0.1548                 0.3887                 0.8571
  Atom  AN      X      Y      Z        X      Y      Z        X      Y      Z
     1   6     0.04  -0.04   0.00    -0.05  -0.14   0.00    -0.01   0.12  -0.00
     2   6    -0.02   0.02  -0.00    -0.12  -0.00  -0.00    -0.02  -0.04   0.00
     3   6    -0.00   0.01  -0.00     0.16   0.06   0.00     0.03   0.01  -0.00
     4   6     0.03  -0.04   0.00     0.07  -0.12   0.00    -0.04   0.08  -0.00
     5   6     0.01  -0.01  -0.00    -0.06   0.03  -0.00    -0.06  -0.03   0.00
     6   6     0.02   0.07  -0.00     0.09   0.12  -0.00     0.05  -0.04   0.00
     7   6    -0.10   0.02  -0.00     0.05  -0.01   0.00    -0.01   0.01   0.00
     8   6    -0.00  -0.00   0.00     0.01  -0.08  -0.00     0.00  -0.08  -0.00
     9   8     0.02  -0.07   0.00     0.00   0.05  -0.00    -0.01  -0.04   0.00
    10   8     0.00   0.00  -0.00    -0.03   0.01  -0.00     0.00  -0.03  -0.00
    11   8    -0.00   0.02  -0.00    -0.01   0.03  -0.00     0.00  -0.04   0.00
    12   1     0.03   0.00   0.00     0.03  -0.06   0.00     0.12  -0.08  -0.00
    13   1    -0.20   0.04  -0.00    -0.09   0.04  -0.00     0.19  -0.11   0.00
    14   1    -0.17  -0.12   0.00    -0.19  -0.16  -0.00     0.01  -0.10   0.00
    15   1     0.61   0.66   0.00    -0.29  -0.32  -0.00     0.20   0.19   0.00
    16   1     0.01   0.00  -0.01    -0.10   0.34  -0.06    -0.10   0.42  -0.09
    17   1     0.01   0.00   0.01    -0.10   0.34   0.06    -0.10   0.42   0.09
    18   1    -0.00   0.00  -0.00     0.19   0.31   0.00     0.25   0.44   0.00
    19   1    -0.24  -0.15   0.00    -0.39  -0.25   0.00     0.33   0.20  -0.00
                     37                     38                     39
                      A                      A                      A
 Frequencies --   1490.6551              1496.9255              1508.3742
 Red. masses --      1.0421                 1.6399                 1.3973
 Frc consts  --      1.3644                 2.1650                 1.8731
 IR Inten    --     11.3040                14.1398               110.9810
 Raman Activ --      8.0872                18.1273                 9.1975
 Depolar (P) --      0.7500                 0.4833                 0.1347
 Depolar (U) --      0.8571                 0.6516                 0.2373
  Atom  AN      X      Y      Z        X      Y      Z        X      Y      Z
     1   6    -0.00  -0.00   0.00    -0.10   0.07  -0.00    -0.07   0.05  -0.00
     2   6    -0.00   0.00   0.00    -0.01  -0.06   0.00    -0.02  -0.04   0.00
     3   6     0.00   0.00  -0.00     0.12   0.01   0.00     0.10  -0.00   0.00
     4   6     0.00  -0.00   0.00    -0.03   0.01  -0.00    -0.01   0.02  -0.00
     5   6     0.00   0.00   0.00    -0.06  -0.02   0.00    -0.06  -0.01  -0.00
     6   6     0.00   0.00  -0.00     0.09   0.02   0.00     0.07   0.01   0.00
     7   6     0.00  -0.00   0.00     0.03  -0.00   0.00     0.02   0.00   0.00
     8   6     0.00   0.00  -0.05     0.05   0.05   0.00    -0.04   0.02  -0.00
     9   8     0.00   0.00   0.00    -0.01  -0.01  -0.00    -0.00  -0.01   0.00
    10   8     0.00   0.00  -0.01    -0.02   0.03   0.00    -0.05   0.03  -0.00
    11   8     0.00   0.00  -0.00     0.01  -0.01   0.00    -0.00  -0.01   0.00
    12   1    -0.00   0.00  -0.03    -0.02  -0.07   0.00    -0.04  -0.05   0.00
    13   1    -0.00   0.00  -0.00     0.05  -0.06   0.00     0.08  -0.05   0.00
    14   1    -0.00  -0.00  -0.00    -0.13  -0.22   0.00    -0.08  -0.15   0.00
    15   1    -0.00  -0.00  -0.00     0.10   0.06   0.00     0.06   0.04   0.00
    16   1    -0.34   0.36   0.07    -0.35  -0.39   0.38     0.48   0.01  -0.30
    17   1     0.34  -0.36   0.06    -0.35  -0.39  -0.38     0.48   0.01   0.30
    18   1     0.00  -0.00   0.71    -0.02  -0.07  -0.00    -0.26  -0.47   0.00
    19   1    -0.00  -0.00   0.00     0.04   0.02  -0.00     0.06   0.03  -0.00
                     40                     41                     42
                      A                      A                      A
 Frequencies --   1563.1766              1661.9482              1667.9270
 Red. masses --      4.0464                 6.6824                 6.3051
 Frc consts  --      5.8256                10.8747                10.3347
 IR Inten    --    188.5231               166.0301                27.0791
 Raman Activ --      5.1880               155.7486                22.5603
 Depolar (P) --      0.0476                 0.5658                 0.6801
 Depolar (U) --      0.0908                 0.7227                 0.8096
  Atom  AN      X      Y      Z        X      Y      Z        X      Y      Z
     1   6     0.17   0.00   0.00     0.15   0.19  -0.00     0.09  -0.26   0.00
     2   6    -0.19   0.08  -0.00    -0.29  -0.05  -0.00    -0.21   0.12  -0.00
     3   6     0.06  -0.21   0.00     0.32   0.18   0.00     0.13  -0.17   0.00
     4   6     0.27   0.10  -0.00    -0.14  -0.14   0.00    -0.23   0.35  -0.00
     5   6    -0.21   0.07  -0.00     0.24   0.07  -0.00     0.20  -0.19   0.00
     6   6    -0.01  -0.07   0.00    -0.26  -0.25   0.00     0.02   0.19  -0.00
     7   6    -0.04   0.02  -0.00    -0.04  -0.05   0.00    -0.04  -0.06  -0.00
     8   6    -0.01   0.02   0.00     0.01   0.00   0.00    -0.00   0.02   0.00
     9   8    -0.00  -0.02   0.00     0.00   0.01   0.00     0.03   0.06   0.00
    10   8    -0.02   0.07   0.00    -0.04   0.00  -0.00    -0.01   0.02   0.00
    11   8    -0.08  -0.02   0.00     0.02   0.02  -0.00     0.01  -0.06   0.00
    12   1     0.48  -0.11   0.00     0.30  -0.24   0.00     0.26  -0.01   0.00
    13   1     0.52  -0.10   0.00    -0.20   0.20  -0.00    -0.31  -0.09   0.00
    14   1     0.29   0.21  -0.00     0.29   0.33  -0.00    -0.25  -0.08  -0.00
    15   1    -0.04   0.03  -0.00     0.12   0.10  -0.00    -0.06  -0.08  -0.00
    16   1    -0.04  -0.17   0.08     0.00  -0.03   0.02     0.00  -0.06   0.02
    17   1    -0.04  -0.16  -0.08     0.00  -0.03  -0.02     0.00  -0.06  -0.02
    18   1    -0.05  -0.05  -0.00    -0.03  -0.10  -0.00    -0.03  -0.04  -0.00
    19   1    -0.10  -0.04   0.00    -0.15  -0.08  -0.00     0.43   0.27  -0.00
                     43                     44                     45
                      A                      A                      A
 Frequencies --   1785.1619              2914.2322              3043.8588
 Red. masses --     10.1943                 1.0836                 1.0333
 Frc consts  --     19.1410                 5.4223                 5.6405
 IR Inten    --    319.9541               112.4075                35.7484
 Raman Activ --    164.4088               166.2492               151.4742
 Depolar (P) --      0.3481                 0.3059                 0.0313
 Depolar (U) --      0.5164                 0.4685                 0.0606
  Atom  AN      X      Y      Z        X      Y      Z        X      Y      Z
     1   6     0.01  -0.10   0.00    -0.00  -0.00   0.00     0.00   0.00  -0.00
     2   6    -0.06   0.04  -0.00    -0.00   0.00  -0.00     0.00   0.00  -0.00
     3   6     0.04   0.01  -0.00    -0.00  -0.00   0.00    -0.00   0.00   0.00
     4   6    -0.06   0.01  -0.00    -0.00   0.00   0.00     0.00  -0.00   0.00
     5   6     0.08  -0.02   0.00     0.00   0.00  -0.00    -0.00  -0.00  -0.00
     6   6    -0.06  -0.01  -0.00    -0.00   0.00  -0.00    -0.00   0.00  -0.00
     7   6     0.28   0.65  -0.00     0.06  -0.06   0.00    -0.00  -0.00  -0.00
     8   6     0.00   0.01   0.00     0.00   0.00   0.00    -0.03  -0.04  -0.00
     9   8    -0.16  -0.44   0.00    -0.00  -0.00  -0.00     0.00   0.00  -0.00
    10   8     0.00  -0.01  -0.00     0.00  -0.00  -0.00     0.00  -0.00  -0.00
    11   8     0.01   0.00  -0.00     0.00   0.00  -0.00    -0.00   0.00  -0.00
    12   1     0.07   0.01   0.00    -0.00   0.01  -0.00    -0.00  -0.02   0.00
    13   1    -0.07   0.02  -0.00     0.00   0.00  -0.00     0.00   0.00  -0.00
    14   1    -0.00   0.05  -0.00     0.01  -0.00   0.00     0.00  -0.00   0.00
    15   1    -0.47  -0.09  -0.00    -0.66   0.74  -0.00    -0.00   0.00  -0.00
    16   1     0.00  -0.01   0.01    -0.00  -0.00  -0.00     0.33   0.17   0.55
    17   1     0.00  -0.01  -0.01    -0.00  -0.00   0.00     0.33   0.17  -0.55
    18   1    -0.01  -0.01  -0.00    -0.00   0.00   0.00    -0.31   0.15   0.00
    19   1     0.02   0.01  -0.00     0.00  -0.00   0.00     0.00   0.00   0.00
                     46                     47                     48
                      A                      A                      A
 Frequencies --   3112.7702              3172.0163              3192.9064
 Red. masses --      1.1064                 1.1016                 1.0892
 Frc consts  --      6.3163                 6.5305                 6.5424
 IR Inten    --     20.4264                13.0131                 3.8945
 Raman Activ --     39.7219               103.6250                65.7938
 Depolar (P) --      0.7500                 0.4653                 0.4270
 Depolar (U) --      0.8571                 0.6351                 0.5984
  Atom  AN      X      Y      Z        X      Y      Z        X      Y      Z
     1   6    -0.00  -0.00  -0.00     0.00  -0.00   0.00    -0.00  -0.00   0.00
     2   6    -0.00  -0.00   0.00     0.00   0.00  -0.00     0.00  -0.00   0.00
     3   6     0.00  -0.00   0.00     0.00  -0.00   0.00    -0.00   0.00  -0.00
     4   6     0.00   0.00  -0.00     0.00  -0.00   0.00    -0.00   0.00  -0.00
     5   6     0.00   0.00  -0.00    -0.00  -0.00  -0.00    -0.00  -0.02   0.00
     6   6     0.00  -0.00  -0.00    -0.00   0.00   0.00    -0.06   0.06  -0.00
     7   6     0.00   0.00   0.00     0.00  -0.00  -0.00    -0.00   0.00  -0.00
     8   6    -0.00   0.00  -0.09    -0.09   0.02   0.00     0.00   0.00  -0.00
     9   8    -0.00  -0.00   0.00    -0.00  -0.00   0.00     0.00   0.00   0.00
    10   8    -0.00   0.00   0.00     0.00   0.00  -0.00     0.00  -0.00   0.00
    11   8     0.00  -0.00   0.00     0.00   0.00  -0.00    -0.00  -0.00   0.00
    12   1     0.00   0.00   0.00    -0.01  -0.03   0.00     0.00   0.02  -0.00
    13   1    -0.00  -0.00   0.00     0.00   0.00  -0.00     0.06   0.25  -0.00
    14   1    -0.00   0.00   0.00     0.00  -0.00  -0.00     0.69  -0.67   0.00
    15   1    -0.00   0.00  -0.00    -0.00   0.00  -0.00     0.01  -0.00   0.00
    16   1     0.37   0.18   0.57     0.10   0.06   0.20    -0.00  -0.00  -0.00
    17   1    -0.37  -0.18   0.57     0.10   0.06  -0.20    -0.00  -0.00   0.00
    18   1     0.00  -0.00  -0.02     0.85  -0.41  -0.00    -0.00   0.00   0.00
    19   1    -0.00  -0.00  -0.00    -0.00  -0.00   0.00    -0.00   0.00  -0.00
                     49                     50                     51
                      A                      A                      A
 Frequencies --   3222.3304              3226.5090              3811.7833
 Red. masses --      1.0937                 1.0905                 1.0648
 Frc consts  --      6.6912                 6.6886                 9.1153
 IR Inten    --      2.2519                 4.8448               136.5168
 Raman Activ --    127.7429                65.6839                88.1821
 Depolar (P) --      0.2121                 0.2036                 0.1821
[...]
 704385,0.00000223,-0.10870025,0.07956376,0.00000903,0.75274436,-0.0177
 6715,-0.05937565,-0.00000996,0.07960764,0.01151435,-0.00000281,0.00033
 312,-0.26786673,-0.00004224,0.04850220,0.71252448,-0.00000535,-0.00000
 065,-0.00585836,0.00000969,-0.00000527,0.00492024,0.00000437,-0.000045
 64,-0.07413739,-0.00001109,0.00014502,0.15492734,-0.00980976,0.0735343
 4,0.00001006,-0.04876788,-0.01921383,-0.00000063,0.04527939,-0.0531922
 1,-0.00000570,-0.21899298,-0.07313071,-0.00001080,0.70980445,0.0320043
 3,-0.00236068,0.00000142,-0.00664766,-0.00458343,0.00000159,-0.0162844
 0,-0.03501478,-0.00000553,-0.14205344,-0.25725456,-0.00003106,-0.02574
 304,0.74905413,0.00000085,0.00000245,0.01030583,-0.00000204,-0.0000013
 0,-0.00306867,-0.00000368,-0.00000929,0.00543130,-0.00001433,-0.000019
 08,-0.06407173,-0.00000016,0.00006406,0.12270175,-0.12615548,0.0216955
 2,-0.00000047,0.04025704,-0.00928514,-0.00000432,-0.02061504,0.0319549
 1,0.00000888,-0.05553727,-0.05358498,-0.00000224,-0.33293906,0.0947344
 1,0.00000413,0.72120825,0.06413403,-0.33185058,-0.00002855,-0.04541302
 ,-0.04937201,-0.00000753,0.03236990,-0.03500172,-0.00000572,-0.0059760
 3,0.06058810,0.00000485,0.03353436,-0.14546771,-0.00000940,0.02722160,
 0.70854939,0.00000751,-0.00003014,-0.06266532,-0.00000578,-0.00000911,
 0.00828891,0.00000360,-0.00000330,-0.00408635,0.00000013,0.00000681,0.
 00236581,-0.00001061,-0.00000751,-0.05869899,0.00002023,0.00005909,0.1
 3643360,-0.22235378,0.01224518,-0.00001105,-0.04254744,-0.00396740,-0.
 00000227,0.00289271,-0.01322644,-0.00000713,-0.01156914,0.00202905,0.0
 0000293,0.01022849,0.00091947,0.00000154,-0.01196100,0.02217113,0.0000
 0087,0.59664525,-0.01604149,-0.09942852,-0.00000372,-0.01171372,0.0188
 6298,0.00000068,-0.00745253,0.00395739,0.00000262,0.00486216,-0.007487
 36,-0.00000158,-0.00057779,-0.00770956,-0.00000277,0.03932795,-0.01791
 558,0.00000184,-0.08599490,0.93976875,-0.00001260,-0.00000002,-0.07128
 601,-0.00000763,0.00000024,0.00185480,0.00000105,-0.00000081,0.0054062
 0,0.00000059,-0.00000060,-0.00096788,-0.00000012,-0.00000161,0.0081682
 9,0.00000466,-0.00000038,-0.00233755,0.00002291,0.00001568,0.18927235,
 0.00004322,-0.00021710,-0.00000050,-0.00161316,-0.00428672,0.00000394,
 0.00433974,-0.03782794,0.00003262,-0.00818403,-0.00165344,-0.00000219,
 0.00081249,-0.00113247,-0.00000213,-0.00022948,-0.00039532,0.00000005,
 0.00060163,-0.00062793,-0.00000007,0.61965489,0.00282856,-0.00167217,0
 .00000093,0.00288407,0.00633817,-0.00000121,-0.01329595,-0.04456888,0.
 00002085,0.00039452,0.00415045,0.00000715,-0.00055403,-0.00144129,-0.0
 0000178,0.00191689,0.00090411,0.00000075,-0.00253917,0.00313706,-0.000
 00031,0.03702493,0.47329171,-0.00000032,0.00000478,0.00035321,-0.00000
 676,-0.00000614,-0.00060536,0.00001753,-0.00001024,-0.00381190,-0.0000
 0583,-0.00000262,0.00196357,-0.00000241,-0.00000479,0.00095688,0.00000
 279,-0.00000268,0.00043856,0.00000075,-0.00000130,-0.00006230,-0.00003
 981,0.00013575,0.57674251,-0.02140618,0.05758034,-0.00000044,0.0039522
 7,0.00239575,-0.00000033,0.00193098,0.00405167,0.00000230,0.00405003,0
 .00075023,-0.00000079,-0.00390649,0.00175975,-0.00000011,-0.00513304,-
 0.00649599,-0.00000163,-0.16591005,0.18416294,-0.00000172,-0.00023707,
 0.00115068,-0.00000069,0.16846753,0.05583195,-0.03001802,0.00000203,-0
 .01113420,-0.00646295,-0.00000089,0.00275667,-0.00581805,-0.00000421,-
 0.00675087,0.00220753,0.00000157,0.00453510,0.00181086,0.00000133,-0.0
 0232195,0.01092524,0.00000061,0.17683471,-0.67490020,-0.00000588,0.000
 62860,-0.00250212,0.00000110,-0.23385923,0.75244321,0.00000014,0.00000
 203,0.01884017,-0.00000049,-0.00000003,-0.00029965,0.00000042,-0.00000
 004,-0.00085876,-0.00000044,0.00000045,-0.00011660,0.00000036,0.000000
 52,-0.00213866,-0.00000162,-0.00000009,0.00417454,-0.00000204,-0.00000
 638,-0.06409418,-0.00000012,0.00000002,-0.00012518,0.00000279,0.000005
 57,0.02492695,-0.00203322,0.00467705,-0.00000170,-0.04180891,-0.033563
 37,-0.00002155,-0.23395744,-0.06820005,-0.00010008,-0.01115640,-0.0146
 8877,-0.00000290,0.00515866,0.00674839,0.00000686,-0.00759200,-0.00037
 780,-0.00000080,0.00135137,-0.00521058,-0.00000013,-0.09734321,0.01980
 691,-0.00003806,-0.00092692,0.00237792,0.00000009,0.36730625,-0.001224
 78,-0.00452907,-0.00000221,-0.00286318,0.01064211,0.00000234,-0.104723
 16,-0.17272116,-0.00004089,-0.04648864,-0.05607405,-0.00002444,0.01086
 323,-0.00211670,0.00000059,-0.00684375,0.00139057,0.00000008,0.0053998
 7,-0.00456276,-0.00000061,0.05590607,-0.22320720,0.00017267,-0.0021956
 5,0.00431226,-0.00000004,0.08006328,0.54371163,-0.00000230,-0.00001120
 ,0.00786007,0.00000459,0.00001010,0.00651043,-0.00007277,0.00001024,-0
 .04307055,-0.00000922,-0.00002258,0.00772670,0.00001101,0.00000834,0.0
 0386627,-0.00001089,0.00000595,-0.00113222,0.00000134,-0.00000221,0.00
 065462,-0.00006908,0.00011975,-0.05893981,-0.00000017,0.00000113,0.000
 23616,0.00016940,-0.00019883,0.07037886,-0.01628974,0.00144009,-0.0000
 0108,0.01086250,0.00094375,0.00000506,-0.04688303,0.01778719,0.0000081
 8,-0.31425990,0.08967728,0.00006131,-0.05704969,0.00120877,0.00000442,
 0.00795983,-0.00565298,-0.00000196,0.01210448,-0.00568818,-0.00000021,
 0.00188373,-0.00075948,-0.00000203,-0.00443106,0.00669373,0.00000018,0
 .01246114,-0.00357991,0.00000319,0.56967443,0.00260242,0.00390944,0.00
 000070,-0.00637026,-0.00803473,-0.00000217,0.04612882,-0.01699796,-0.0
 0001417,0.03463015,-0.13287832,-0.00006123,-0.03448036,0.02009861,0.00
 000649,0.00053995,-0.00852237,-0.00000002,-0.00150281,0.00102919,0.000
 00006,0.00208575,0.00183724,-0.00000453,0.00056130,-0.00042137,-0.0000
 0007,0.00551636,-0.00180859,0.00000768,0.12850748,0.51656737,0.0000053
 7,-0.00000321,-0.00017126,-0.00000114,0.00000021,0.00514487,0.00001393
 ,-0.00000391,0.01138062,0.00000632,-0.00005990,-0.04430996,-0.00000042
 ,0.00000914,0.00703890,-0.00000838,-0.00000132,0.00484391,-0.00000413,
 0.00000175,-0.00048158,0.00000172,0.00000237,0.00062133,0.00000138,-0.
 00000202,0.00022543,-0.00000617,-0.00000169,-0.00279978,0.00020032,0.0
 0047354,0.03165828,0.01231919,-0.02064984,-0.00000321,-0.07925068,0.07
 673276,0.00000896,-0.00171010,0.02876487,0.00000321,-0.00459945,-0.000
 24001,-0.00000122,-0.00129423,-0.00032044,0.00000007,-0.00331094,-0.00
 336681,-0.00000115,0.00110289,-0.00184812,0.00000039,-0.00139426,0.000
 81064,-0.00000080,0.00019290,0.00186383,0.00000041,0.00249537,-0.00173
 878,0.00000225,-0.00106560,0.00156699,0.00000045,0.07645162,0.00526403
 ,-0.01825243,-0.00000338,0.07723945,-0.32167738,-0.00003772,0.00123954
 ,-0.00264442,-0.00000092,0.00028204,0.00088174,-0.00000064,-0.00004936
 ,0.00069945,0.00000036,-0.00385115,-0.00111072,-0.00000107,0.00214741,
 -0.00223707,0.00000055,-0.00176362,-0.00049454,0.00000100,0.00080135,0
 .00211559,0.00000027,-0.00028855,-0.00130635,0.00000155,0.00009415,-0.
 00008998,0.00000015,-0.07965687,0.34531411,0.00000282,-0.00000502,0.00
 258334,0.00000179,-0.00003480,-0.03457572,0.00000575,0.00000006,0.0051
 4951,-0.00000013,0.00000039,0.00689031,-0.00000170,-0.00000017,-0.0011
 1645,-0.00000088,-0.00000204,0.00500914,0.00000117,0.00000046,-0.00343
 458,0.00000107,-0.00000088,-0.00056898,0.,0.00000070,-0.00045142,-0.00
 000013,0.00000062,-0.00341577,-0.00000045,0.00000079,-0.00093948,-0.00
 001020,0.00004062,0.02444080,-0.00566323,0.00038234,-0.00000055,-0.000
 95722,-0.00067768,0.00000013,-0.00335910,-0.00165173,-0.00000052,0.009
 98907,-0.02323162,-0.00000363,-0.07745666,0.07141686,0.00000783,-0.001
 73114,0.02992622,0.00000428,0.00104050,0.00128889,0.00000010,-0.000344
 23,-0.00003352,-0.00000095,-0.00088789,0.00050999,-0.00000003,0.000342
 22,-0.00169357,0.00000084,0.00202156,0.00159321,0.00000066,0.00003283,
 0.00008608,0.00000003,0.07567947,0.00135223,0.00193778,-0.00000032,-0.
 00084532,0.00034524,0.00000021,-0.00299338,-0.00043826,-0.00000072,0.0
 0949898,-0.01840445,-0.00000353,0.06928871,-0.32654897,-0.00002981,0.0
 0013630,-0.00267543,-0.00000106,-0.00052394,-0.00001165,0.00000002,-0.
 00034941,0.00020430,-0.00000078,0.00023273,-0.00024732,0.00000001,0.00
 016493,-0.00127642,0.00000060,0.00074765,0.00181055,0.00000083,0.00003
 966,-0.00006760,0.00000007,-0.07720730,0.34474169,-0.00000030,-0.00000
 172,0.00657363,0.00000078,0.00000059,-0.00088269,-0.00000068,-0.000000
 45,0.00591121,0.00000180,-0.00000541,0.00531549,0.00000970,-0.00003019
 ,-0.03392229,-0.00000257,0.00000185,0.00178954,-0.00000031,-0.00000017
 ,0.00093098,0.00000029,-0.00000064,-0.00033166,0.00000020,-0.00000007,
 -0.00047840,-0.00000037,0.00000026,0.00007967,0.00000006,0.00000146,-0
 .00383829,0.00000007,0.00000003,-0.00037194,-0.00000793,0.00003395,0.0
 2377954,0.00923199,0.00329094,0.00000068,0.00038650,0.00185250,0.00000
 019,-0.00049988,0.00101026,0.00000010,-0.00327616,0.00304952,0.0000003
 0,-0.01634453,-0.02229590,-0.00000234,-0.20438198,-0.13827883,-0.00001
 643,0.00012926,0.00326729,0.00000016,-0.00001447,0.00011478,-0.0000001
 0,0.00036061,-0.00148203,-0.00000004,0.00003526,-0.00029550,0.,-0.0013
 5896,-0.00140626,-0.00000099,0.00019568,0.00046423,0.00000014,0.001222
 19,0.00026101,0.00000014,0.21449888,-0.02309045,-0.01609945,-0.0000025
 7,0.00281217,-0.00494922,-0.00000066,0.00106761,-0.00046122,-0.0000001
 6,0.00244339,0.00034403,-0.00000064,0.00830037,0.01001467,0.00000064,-
 0.13985061,-0.19355354,-0.00001612,-0.00395164,0.00023499,0.00000016,0
 .00000025,-0.00010395,-0.00000006,0.00089724,0.00076675,0.,-0.00004585
 ,0.00023425,0.00000032,0.00041578,0.00047677,0.00000028,-0.00128620,-0
 .00080214,-0.00000047,-0.00053991,0.00066108,0.00000044,0.15111715,0.2
 0265758,-0.00000255,-0.00000359,0.00265070,-0.00000023,-0.00000127,0.0
 0577934,-0.00000017,0.00000063,-0.00067833,-0.00000027,-0.00000116,0.0
 0664385,0.00000124,-0.00000033,0.00334422,-0.00001580,-0.00001376,-0.0
 3521374,0.00000006,0.00000091,-0.00489165,-0.00000013,-0.00000029,-0.0
 0018014,0.,-0.00000013,0.00097105,-0.00000010,-0.00000019,-0.00048065,
 0.00000033,-0.00000026,0.00018171,0.00000008,-0.00000003,0.00076103,0.
 00000006,0.00000053,-0.00397153,0.00001752,0.00001892,0.02510754,-0.01
 828706,-0.02379516,-0.00000266,-0.00510179,0.00349130,0.00000050,0.000
 18311,-0.00195772,-0.00000079,0.00044412,0.00014179,-0.00000019,-0.000
 14916,0.00079312,0.00000007,0.00061633,-0.00225259,-0.00000017,-0.1706
 3674,-0.09849887,-0.00000720,0.00000307,0.00024075,-0.00000028,0.02330
 918,0.00411634,0.00000038,-0.00087731,0.00010054,0.00000024,-0.0003288
 6,0.00023194,0.00000021,0.00036402,-0.00006511,0.00000015,-0.00012858,
 0.00004570,0.00000002,0.00015311,0.00153518,0.00000011,0.17030841,0.00
 331652,0.00381051,-0.00000013,0.00164177,0.00026921,0.,0.00019056,0.00
 086111,0.00000038,0.00071535,-0.00019029,-0.00000025,-0.00064609,0.000
 21072,0.00000004,0.00104007,0.00127385,0.00000014,-0.10910696,-0.15251
 500,-0.00000684,0.00002708,0.00001352,0.,-0.01209565,-0.05390065,-0.00
 000226,0.00001206,-0.00013190,-0.00000005,-0.00078049,0.00019088,0.000
 00028,0.00054385,-0.00006103,0.00000003,-0.00007584,0.00002418,0.,-0.0
 0082678,0.00051797,0.00000001,0.11593022,0.19956443,-0.00000322,-0.000
 00234,0.01607828,0.00000085,-0.00000012,0.00254513,-0.00000086,0.00000
 018,-0.00027333,-0.00000017,-0.00000034,0.00068686,0.00000008,0.000000
 13,-0.00045460,0.00000010,0.00000024,-0.00119006,-0.00000607,-0.000005
 61,-0.05867853,0.00000013,0.00000017,0.00006147,-0.00000042,-0.0000013
 7,0.01906086,0.00000009,0.00000023,-0.00065160,0.00000003,0.00000008,-
 0.00023441,-0.00000015,-0.00000002,0.00035673,0.,-0.00000002,-0.000002
 92,0.,0.00000010,0.00011680,0.00000966,0.00000871,0.02260067,-0.000172
 92,-0.00035930,-0.00048628,0.00023231,0.00066895,0.00029115,0.00043301
 ,-0.00076723,0.00111670,0.00034576,-0.00022777,-0.00007250,0.00026176,
 -0.00003316,-0.00006728,0.00002365,0.00038344,-0.00003641,-0.00012834,
 0.00006396,0.00004469,-0.11806703,0.02996625,-0.11011253,0.00012904,-0
 .00005166,-0.00004519,-0.00181900,0.00786878,-0.00288349,-0.00028603,0
 .00015548,0.00007691,-0.00054096,-0.00067005,0.00097524,0.00001217,0.0
 0002630,0.00000754,0.00000313,0.00000735,0.00007269,0.00003078,0.00002
 324,0.00001264,0.12289088,-0.00054221,-0.00052790,-0.00042632,-0.00065
 299,0.00077140,-0.00020961,0.00577038,0.00502377,0.00137354,0.00034927
 ,-0.00169153,-0.00055470,0.00072390,0.00020906,-0.00015663,-0.00059813
 ,0.00043289,-0.00002167,0.00023363,-0.00030556,0.00003378,0.02575771,-
 0.06087464,0.04484967,-0.00007098,0.00022021,-0.00003519,0.01993624,-0
 .03065442,0.02928472,-0.00066957,-0.00036772,-0.00012222,-0.00072327,-
 0.00038086,0.00091653,-0.00001069,-0.00001523,0.00008429,-0.00002151,0
 .00002349,0.00006377,-0.00000064,-0.00000702,0.00001501,-0.03878117,0.
 07814837,0.00041128,-0.00034271,-0.00008903,-0.00087493,0.00085876,-0.
 00015934,-0.00104226,-0.00087660,0.00057554,0.00021224,0.00042363,-0.0
 0017976,-0.00009214,-0.00012601,-0.00003235,0.00006359,-0.00000852,-0.
 00004727,-0.00008600,0.00030495,0.00001035,-0.11018037,0.05056478,-0.2
 3251111,-0.00002089,-0.00024740,0.00002746,0.00238897,0.00473337,0.007
 24942,0.00015008,-0.00015245,0.00002211,0.00065406,-0.00025529,-0.0000
 5341,0.00001442,0.00000883,0.00001316,0.00001255,-0.00006240,0.0000175
 5,-0.00002802,-0.00003679,-0.00000384,0.12094989,-0.05858366,0.2437453
 4,-0.00017179,-0.00035848,0.00048632,0.00023264,0.00066953,-0.00029266
 ,0.00042878,-0.00076892,-0.00111057,0.00034454,-0.00022681,0.00007388,
 0.00026122,-0.00003327,0.00006688,0.00002392,0.00038286,0.00003676,-0.
 00012860,0.00006427,-0.00004481,-0.11804636,0.03016075,0.11007239,0.00
 012904,-0.00005189,0.00004514,-0.00180921,0.00788055,0.00285963,-0.000
 28537,0.00015574,-0.00007637,-0.00054113,-0.00067121,-0.00097385,0.000
 01213,0.00002626,-0.00000778,0.00000316,0.00000733,-0.00007276,0.00003
 076,0.00002325,-0.00001259,0.00869997,-0.00471981,-0.01427870,0.122865
 57,-0.00054219,-0.00052530,0.00042524,-0.00065286,0.00076944,0.0002086
 7,0.00577142,0.00501491,-0.00137002,0.00034684,-0.00169086,0.00055394,
 0.00072247,0.00020762,0.00015702,-0.00059678,0.00043149,0.00002175,0.0
 0023419,-0.00030623,-0.00003369,0.02596286,-0.06104083,-0.04518614,-0.
 00007127,0.00022092,0.00003530,0.01993234,-0.03071283,-0.02922662,-0.0
 0066996,-0.00036876,0.00012188,-0.00072583,-0.00038111,-0.00091631,-0.
 00001104,-0.00001545,-0.00008434,-0.00002154,0.00002359,-0.00006374,-0
 .00000065,-0.00000696,-0.00001500,-0.00469249,0.00400877,0.00518296,-0
 .03900148,0.07835984,-0.00041133,0.00034413,-0.00009046,0.00087750,-0.
 00086086,-0.00016022,0.00103339,0.00086863,0.00057465,-0.00021116,-0.0
 0041936,-0.00018157,0.00009026,0.00012513,-0.00003214,-0.00006163,0.00
 000780,-0.00004727,0.00008589,-0.00030455,0.00001036,0.11014717,-0.050
 89525,-0.23241310,0.00002094,0.00024718,0.00002736,-0.00242794,-0.0046
 7037,0.00731803,-0.00014942,0.00015282,0.00002216,-0.00065312,0.000255
 60,-0.00005043,-0.00001438,-0.00000878,0.00001333,-0.00001254,0.000062
 37,0.00001780,0.00002800,0.00003680,-0.00000381,0.01428022,-0.00522548
 ,-0.02018616,-0.12088998,0.05890874,0.24360927,0.00029885,-0.00011266,
 0.00000093,-0.00055581,0.00038387,0.00000022,0.00091276,0.00233204,-0.
 00000031,0.00026088,0.00038886,0.00000062,-0.00018896,0.00001607,0.000
 00014,-0.00001489,-0.00017602,-0.00000016,0.00015915,0.00005439,0.,-0.
 28306689,-0.11173255,0.00011976,-0.00012955,-0.00000415,0.00000002,0.0
 1018795,0.00503273,-0.00000755,0.00015854,-0.00019657,-0.00000019,0.00
 029671,-0.00055737,-0.00000068,0.00002264,0.00001646,-0.00000005,0.000
 00589,-0.00004198,-0.00000009,-0.00002982,-0.00002943,-0.00000003,-0.0
 1219504,-0.00552977,0.00170702,-0.01219625,-0.00553273,-0.00169331,0.2
 9617961,-0.00056150,0.00014649,-0.00000033,0.00108436,-0.00031307,-0.0
 0000071,0.00406902,-0.00436080,0.00001326,-0.00229383,-0.00080786,0.00
 000041,0.00058280,-0.00039270,-0.00000110,-0.00008576,0.00010951,0.000
 00033,0.00022985,-0.00032165,-0.00000008,-0.09725970,-0.09088908,0.000
 04994,-0.00007439,0.00024319,0.00000002,-0.03457152,-0.03171899,0.0000
 1724,0.00043808,0.00012204,0.00000015,-0.00014436,0.00057957,-0.000000
 28,-0.00013091,-0.00011444,0.,-0.00002456,0.00003389,-0.00000003,-0.00
 001294,0.00000158,0.00000003,0.00666723,0.00511837,-0.00126393,0.00670
 957,0.00514245,0.00125538,0.11559530,0.11762453,0.00000083,0.00000063,
 0.00017247,-0.00000115,-0.00000105,0.00028928,-0.00000504,-0.00000032,
 0.00050639,0.00000124,0.00000195,0.00034415,-0.00000123,0.00000012,-0.
 00003463,0.00000047,-0.00000072,-0.00002587,-0.00000008,0.00000020,0.0
 0002813,0.00010826,0.00004905,-0.05032141,-0.00000001,-0.00000009,0.00
 002793,0.00002760,0.00002769,0.00006347,0.00000031,-0.00000015,-0.0001
 2422,-0.00000038,-0.00000100,-0.00044731,0.00000008,0.00000006,-0.0000
 3680,0.00000003,-0.00000002,-0.00002965,0.,0.,-0.00001205,-0.02399151,
 -0.01163441,0.00160042,0.02398682,0.01162860,0.00157082,-0.00012631,-0
 .00007055,0.04626871,0.00105910,0.00019724,0.00000009,-0.00086252,-0.0
 0137127,0.00000052,-0.00201636,-0.00136354,-0.00000040,-0.03931917,-0.
 03972844,-0.00004019,-0.00490706,0.00494259,-0.00000072,-0.00048769,-0
 .00173815,0.00000168,-0.00102063,0.00056226,-0.00000005,0.00120144,0.0
 0161495,-0.00000265,0.00044669,-0.00049286,0.00000004,-0.00001461,-0.0
 0146813,0.00000299,-0.17488798,-0.18031935,-0.00020947,0.00025615,-0.0
 0004499,-0.00000013,0.00015327,0.00008242,-0.00000062,-0.00034966,0.00
 020281,0.,0.00009643,0.00009726,-0.00000008,0.00014685,-0.00045043,0.0
 0003923,0.00014698,-0.00045128,-0.00003856,-0.00010576,-0.00021675,0.0
 0000009,0.22046452,0.00228924,-0.00028152,0.00000038,-0.00285362,-0.00
 085228,-0.00000183,0.01086784,0.00274333,0.00000240,0.00101495,0.01151
 098,0.00001670,0.00550213,0.00058525,-0.00000181,-0.00154935,0.0008645
 1,-0.00000140,-0.00163122,0.00071078,0.00000033,-0.00187959,-0.0030818
 6,0.00000437,0.00051917,-0.00099508,-0.00000008,-0.00228898,0.00052962
 ,-0.00000612,-0.23015339,-0.37655232,-0.00041630,0.00037791,-0.0000848
 3,-0.00000028,0.00006019,0.00009038,0.00000014,0.00022522,-0.00001954,
 0.,-0.00004321,0.00007487,-0.00000006,-0.00024817,0.00086854,-0.000121
 53,-0.00024826,0.00086929,0.00012007,0.00009349,-0.00020303,0.00000002
 ,0.21994564,0.36322292,-0.00000301,0.00000087,-0.00039925,0.00000112,-
 0.00000214,-0.00057013,-0.00000218,-0.00000121,0.00122025,0.00001950,0
 .00000780,-0.00196105,0.00000322,-0.00000324,0.00175705,0.00000396,0.0
 0000093,0.00210061,0.00000160,-0.00000079,-0.00010179,-0.00000086,-0.0
 0000120,-0.00126658,-0.00000040,0.00000085,0.00004493,0.00000690,0.000
 00143,-0.00145331,-0.00027831,-0.00040856,-0.00824034,0.00000030,-0.00
 000006,0.00023462,-0.00000043,-0.00000010,-0.00057001,0.00000063,-0.00
 000011,-0.00014590,-0.00000003,-0.00000008,-0.00000164,-0.00013248,0.0
 0034859,0.00000091,0.00013225,-0.00034823,0.00000137,-0.00000001,0.000
 00024,0.00016015,0.00024822,0.00040500,0.00919011\\0.00002794,-0.00000
 901,0.00000325,-0.00000667,0.00001541,0.00000752,-0.00002630,-0.000010
 53,-0.00001871,0.00000958,-0.00000612,0.00000421,0.00001134,-0.0000349
 8,0.00000778,-0.00000866,0.00001453,-0.00000727,-0.00001607,0.00003011
 ,-0.00000498,-0.00000607,0.00000816,0.00001029,0.00000170,-0.00002212,
 0.00000079,0.00001057,0.00000346,0.00002249,-0.00002758,-0.00003306,-0
 .00002285,0.00000596,-0.00001681,-0.00000276,-0.00001232,0.00003296,0.
 00000216,-0.00000025,-0.00000313,0.00000217,-0.00000523,-0.00000148,0.
 00000210,-0.00000406,0.00000011,-0.00000614,0.00001033,-0.00000808,-0.
 00001130,0.00000426,0.00000262,-0.00000208,0.00003154,0.00003796,0.000
 01334\\\@
 The archive entry for this job was punched.


 A MAN BEGINS CUTTING HIS WISDOM TEETH THE 1ST
 TIME HE BITES OFF MORE THAN HE CAN CHEW.
 Job cpu time:       0 days  3 hours 33 minutes 32.8 seconds.
 Elapsed time:       0 days  0 hours 10 minutes 43.3 seconds.
 File lengths (MBytes):  RWF=    239 Int=      0 D2E=      0 Chk=     11 Scr=      1
 Normal termination of Gaussian 16 at Mon Jan 29 12:27:44 2024.
